n -t * -s 0  -x 0 -y 0 -Z 0 -z 50  -v circle -c black
n -t * -s 1  -x 0 -y 0 -Z 0 -z 50  -v circle -c black
n -t * -s 2  -x 0 -y 0 -Z 0 -z 50  -v circle -c black
n -t * -s 3  -x 0 -y 0 -Z 0 -z 50  -v circle -c black
n -t * -s 4  -x 0 -y 0 -Z 0 -z 50  -v circle -c black
n -t * -s 5  -x 0 -y 0 -Z 0 -z 50  -v circle -c black
n -t * -s 6  -x 0 -y 0 -Z 0 -z 50  -v circle -c black
n -t * -s 7  -x 0 -y 0 -Z 0 -z 50  -v circle -c black
n -t * -s 8  -x 0 -y 0 -Z 0 -z 50  -v circle -c black
n -t * -s 9  -x 0 -y 0 -Z 0 -z 50  -v circle -c black
n -t * -s 10  -x 0 -y 0 -Z 0 -z 50  -v circle -c black
n -t * -s 11  -x 0 -y 0 -Z 0 -z 50  -v circle -c black
n -t * -s 12  -x 0 -y 0 -Z 0 -z 50  -v circle -c black
n -t * -s 13  -x 0 -y 0 -Z 0 -z 50  -v circle -c black
n -t * -s 14  -x 0 -y 0 -Z 0 -z 50  -v circle -c black
n -t * -s 15  -x 0 -y 0 -Z 0 -z 50  -v circle -c black
n -t * -s 16  -x 0 -y 0 -Z 0 -z 50  -v circle -c black
n -t * -s 17  -x 0 -y 0 -Z 0 -z 50  -v circle -c black
n -t * -s 18  -x 0 -y 0 -Z 0 -z 50  -v circle -c black
n -t * -s 19  -x 0 -y 0 -Z 0 -z 50  -v circle -c black
n -t * -s 20  -x 0 -y 0 -Z 0 -z 50  -v circle -c black
n -t * -s 21  -x 0 -y 0 -Z 0 -z 50  -v circle -c black
n -t * -s 22  -x 0 -y 0 -Z 0 -z 50  -v circle -c black
n -t * -s 23  -x 0 -y 0 -Z 0 -z 50  -v circle -c black
n -t * -s 24  -x 0 -y 0 -Z 0 -z 50  -v circle -c black
n -t * -s 25  -x 0 -y 0 -Z 0 -z 50  -v circle -c black
n -t * -s 26  -x 0 -y 0 -Z 0 -z 50  -v circle -c black
n -t * -s 27  -x 0 -y 0 -Z 0 -z 50  -v circle -c black
n -t * -s 28  -x 0 -y 0 -Z 0 -z 50  -v circle -c black
n -t * -s 29  -x 0 -y 0 -Z 0 -z 50  -v circle -c black
V -t * -v 1.0a5 -a 0
W -t * -x 1000 -y 1000
A -t * -n 1 -p 0 -o 0x7fffffff -c 30 -a 1
A -t * -h 1 -m 1073741823 -s 0
c -t * -i _o605 -n blue
c -t * -i _o542 -n blue
c -t * -i _o164 -n blue
c -t * -i _o227 -n blue
c -t * -i _o479 -n blue
c -t * -i _o311 -n blue
c -t * -i _o626 -n blue
c -t * -i _o563 -n blue
c -t * -i _o185 -n blue
c -t * -i _o248 -n blue
c -t * -i _o332 -n blue
c -t * -i _o17 -n blue
c -t * -i _o584 -n blue
c -t * -i _o269 -n blue
c -t * -i _o101 -n blue
c -t * -i _o416 -n blue
c -t * -i _o353 -n blue
c -t * -i _o290 -n blue
c -t * -i _o38 -n blue
c -t * -i _o500 -n blue
c -t * -i _o122 -n blue
c -t * -i _o437 -n blue
c -t * -i _o374 -n blue
c -t * -i _o59 -n blue
c -t * -i _o521 -n blue
c -t * -i _o80 -n blue
c -t * -i _o143 -n blue
c -t * -i _o206 -n blue
c -t * -i _o458 -n blue
c -t * -i _o395 -n blue
n -t 0.000000 -s 0 -x 702.310000 -y 1.600000 -U 0.000000 -V 0.000000 -T 0.000000
n -t 0.000000 -s 1 -x 390.400000 -y 675.000000 -U 0.000000 -V 0.000000 -T 0.000000
n -t 0.000000 -s 2 -x 785.600000 -y 598.850000 -U 0.000000 -V 0.000000 -T 0.000000
n -t 0.000000 -s 3 -x 880.400000 -y 518.510000 -U 0.000000 -V 0.000000 -T 0.000000
n -t 0.000000 -s 4 -x 337.460000 -y 981.600000 -U 0.000000 -V 0.000000 -T 0.000000
n -t 0.000000 -s 5 -x 184.940000 -y 785.600000 -U 0.000000 -V 0.000000 -T 0.000000
n -t 0.000000 -s 6 -x 334.350000 -y 1.600000 -U 0.000000 -V 0.000000 -T 0.000000
n -t 0.000000 -s 7 -x 295.600000 -y 9.690000 -U 0.000000 -V 0.000000 -T 0.000000
n -t 0.000000 -s 8 -x 903.240000 -y 782.400000 -U 0.000000 -V 0.000000 -T 0.000000
n -t 0.000000 -s 9 -x 675.450000 -y 880.400000 -U 0.000000 -V 0.000000 -T 0.000000
n -t 0.000000 -s 10 -x 96.400000 -y 339.090000 -U 0.000000 -V 0.000000 -T 0.000000
n -t 0.000000 -s 11 -x 405.890000 -y 880.400000 -U 0.000000 -V 0.000000 -T 0.000000
n -t 0.000000 -s 12 -x 723.730000 -y 586.400000 -U 0.000000 -V 0.000000 -T 0.000000
n -t 0.000000 -s 13 -x 197.600000 -y 88.420000 -U 0.000000 -V 0.000000 -T 0.000000
n -t 0.000000 -s 14 -x 390.400000 -y 843.730000 -U 0.000000 -V 0.000000 -T 0.000000
n -t 0.000000 -s 15 -x 237.250000 -y 99.600000 -U 0.000000 -V 0.000000 -T 0.000000
n -t 0.000000 -s 16 -x 295.600000 -y 721.530000 -U 0.000000 -V 0.000000 -T 0.000000
n -t 0.000000 -s 17 -x 785.600000 -y 917.020000 -U 0.000000 -V 0.000000 -T 0.000000
n -t 0.000000 -s 18 -x 488.400000 -y 259.980000 -U 0.000000 -V 0.000000 -T 0.000000
n -t 0.000000 -s 19 -x 595.810000 -y 488.400000 -U 0.000000 -V 0.000000 -T 0.000000
n -t 0.000000 -s 20 -x 978.400000 -y 467.080000 -U 0.000000 -V 0.000000 -T 0.000000
n -t 0.000000 -s 21 -x 633.270000 -y 883.600000 -U 0.000000 -V 0.000000 -T 0.000000
n -t 0.000000 -s 22 -x 331.050000 -y 978.400000 -U 0.000000 -V 0.000000 -T 0.000000
n -t 0.000000 -s 23 -x 782.400000 -y 891.340000 -U 0.000000 -V 0.000000 -T 0.000000
n -t 0.000000 -s 24 -x 589.600000 -y 756.870000 -U 0.000000 -V 0.000000 -T 0.000000
n -t 0.000000 -s 25 -x 127.630000 -y 978.400000 -U 0.000000 -V 0.000000 -T 0.000000
n -t 0.000000 -s 26 -x 282.420000 -y 1.600000 -U 0.000000 -V 0.000000 -T 0.000000
n -t 0.000000 -s 27 -x 589.600000 -y 404.750000 -U 0.000000 -V 0.000000 -T 0.000000
n -t 0.000000 -s 0 -x 702.310000 -y 1.600000 -U 0.000000 -V 0.000000 -T 0.000000
+ -t 0.000020000 -s 28 -d -1 -p gpsr -e 38 -c 2 -a 0 -i 0 -k RTR 
- -t 0.000020000 -s 28 -d -1 -p gpsr -e 38 -c 2 -a 0 -i 0 -k RTR
h -t 0.000020000 -s 28 -d -1 -p gpsr -e 38 -c 2 -a 0 -i 0 -k RTR
+ -t 0.000555000 -s 28 -d -1 -p gpsr -e 96 -c 2 -a 0 -i 0 -k MAC 
- -t 0.000555000 -s 28 -d -1 -p gpsr -e 96 -c 2 -a 0 -i 0 -k MAC
h -t 0.000555000 -s 28 -d -1 -p gpsr -e 96 -c 2 -a 0 -i 0 -k MAC
r -t 0.001323431 -s 25 -d -1 -p gpsr -e 38 -c 2 -a 0 -i 0 -k MAC
r -t 0.001323944 -s 5 -d -1 -p gpsr -e 38 -c 2 -a 0 -i 0 -k MAC
r -t 0.001324106 -s 22 -d -1 -p gpsr -e 38 -c 2 -a 0 -i 0 -k MAC
r -t 0.001324127 -s 4 -d -1 -p gpsr -e 38 -c 2 -a 0 -i 0 -k MAC
r -t 0.001348431 -s 25 -d -1 -p gpsr -e 38 -c 2 -a 0 -i 0 -k RTR
+ -t 0.001348431 -s 25 -d -1 -p gpsr -e 38 -c 2 -a 0 -i 1 -k RTR 
- -t 0.001348431 -s 25 -d -1 -p gpsr -e 38 -c 2 -a 0 -i 1 -k RTR
h -t 0.001348431 -s 25 -d -1 -p gpsr -e 38 -c 2 -a 0 -i 1 -k RTR
r -t 0.001348944 -s 5 -d -1 -p gpsr -e 38 -c 2 -a 0 -i 0 -k RTR
+ -t 0.001348944 -s 5 -d -1 -p gpsr -e 38 -c 2 -a 0 -i 2 -k RTR 
- -t 0.001348944 -s 5 -d -1 -p gpsr -e 38 -c 2 -a 0 -i 2 -k RTR
h -t 0.001348944 -s 5 -d -1 -p gpsr -e 38 -c 2 -a 0 -i 2 -k RTR
r -t 0.001349106 -s 22 -d -1 -p gpsr -e 38 -c 2 -a 0 -i 0 -k RTR
+ -t 0.001349106 -s 22 -d -1 -p gpsr -e 38 -c 2 -a 0 -i 3 -k RTR 
- -t 0.001349106 -s 22 -d -1 -p gpsr -e 38 -c 2 -a 0 -i 3 -k RTR
h -t 0.001349106 -s 22 -d -1 -p gpsr -e 38 -c 2 -a 0 -i 3 -k RTR
r -t 0.001349127 -s 4 -d -1 -p gpsr -e 38 -c 2 -a 0 -i 0 -k RTR
+ -t 0.001349127 -s 4 -d -1 -p gpsr -e 38 -c 2 -a 0 -i 4 -k RTR 
- -t 0.001349127 -s 4 -d -1 -p gpsr -e 38 -c 2 -a 0 -i 4 -k RTR
h -t 0.001349127 -s 4 -d -1 -p gpsr -e 38 -c 2 -a 0 -i 4 -k RTR
+ -t 0.001424127 -s 4 -d -1 -p gpsr -e 96 -c 2 -a 0 -i 4 -k MAC 
- -t 0.001424127 -s 4 -d -1 -p gpsr -e 96 -c 2 -a 0 -i 4 -k MAC
h -t 0.001424127 -s 4 -d -1 -p gpsr -e 96 -c 2 -a 0 -i 4 -k MAC
r -t 0.002192150 -s 22 -d -1 -p gpsr -e 38 -c 2 -a 0 -i 4 -k MAC
r -t 0.002192534 -s 11 -d -1 -p gpsr -e 38 -c 2 -a 0 -i 4 -k MAC
r -t 0.002192619 -s 14 -d -1 -p gpsr -e 38 -c 2 -a 0 -i 4 -k MAC
r -t 0.002192826 -s 25 -d -1 -p gpsr -e 38 -c 2 -a 0 -i 4 -k MAC
r -t 0.002192954 -s 5 -d -1 -p gpsr -e 38 -c 2 -a 0 -i 4 -k MAC
r -t 0.002193005 -s 16 -d -1 -p gpsr -e 38 -c 2 -a 0 -i 4 -k MAC
r -t 0.002193164 -s 1 -d -1 -p gpsr -e 38 -c 2 -a 0 -i 4 -k MAC
r -t 0.002193165 -s 21 -d -1 -p gpsr -e 38 -c 2 -a 0 -i 4 -k MAC
r -t 0.002193252 -s 24 -d -1 -p gpsr -e 38 -c 2 -a 0 -i 4 -k MAC
r -t 0.002193253 -s 28 -d -1 -p gpsr -e 38 -c 2 -a 0 -i 4 -k MAC
r -t 0.002193303 -s 9 -d -1 -p gpsr -e 38 -c 2 -a 0 -i 4 -k MAC
r -t 0.002217150 -s 22 -d -1 -p gpsr -e 38 -c 2 -a 0 -i 4 -k RTR
r -t 0.002217534 -s 11 -d -1 -p gpsr -e 38 -c 2 -a 0 -i 4 -k RTR
+ -t 0.002217534 -s 11 -d -1 -p gpsr -e 38 -c 2 -a 0 -i 5 -k RTR 
- -t 0.002217534 -s 11 -d -1 -p gpsr -e 38 -c 2 -a 0 -i 5 -k RTR
h -t 0.002217534 -s 11 -d -1 -p gpsr -e 38 -c 2 -a 0 -i 5 -k RTR
r -t 0.002217619 -s 14 -d -1 -p gpsr -e 38 -c 2 -a 0 -i 4 -k RTR
+ -t 0.002217619 -s 14 -d -1 -p gpsr -e 38 -c 2 -a 0 -i 6 -k RTR 
- -t 0.002217619 -s 14 -d -1 -p gpsr -e 38 -c 2 -a 0 -i 6 -k RTR
h -t 0.002217619 -s 14 -d -1 -p gpsr -e 38 -c 2 -a 0 -i 6 -k RTR
r -t 0.002217826 -s 25 -d -1 -p gpsr -e 38 -c 2 -a 0 -i 4 -k RTR
r -t 0.002217954 -s 5 -d -1 -p gpsr -e 38 -c 2 -a 0 -i 4 -k RTR
r -t 0.002218005 -s 16 -d -1 -p gpsr -e 38 -c 2 -a 0 -i 4 -k RTR
+ -t 0.002218005 -s 16 -d -1 -p gpsr -e 38 -c 2 -a 0 -i 7 -k RTR 
- -t 0.002218005 -s 16 -d -1 -p gpsr -e 38 -c 2 -a 0 -i 7 -k RTR
h -t 0.002218005 -s 16 -d -1 -p gpsr -e 38 -c 2 -a 0 -i 7 -k RTR
r -t 0.002218164 -s 1 -d -1 -p gpsr -e 38 -c 2 -a 0 -i 4 -k RTR
+ -t 0.002218164 -s 1 -d -1 -p gpsr -e 38 -c 2 -a 0 -i 8 -k RTR 
- -t 0.002218164 -s 1 -d -1 -p gpsr -e 38 -c 2 -a 0 -i 8 -k RTR
h -t 0.002218164 -s 1 -d -1 -p gpsr -e 38 -c 2 -a 0 -i 8 -k RTR
r -t 0.002218165 -s 21 -d -1 -p gpsr -e 38 -c 2 -a 0 -i 4 -k RTR
+ -t 0.002218165 -s 21 -d -1 -p gpsr -e 38 -c 2 -a 0 -i 9 -k RTR 
- -t 0.002218165 -s 21 -d -1 -p gpsr -e 38 -c 2 -a 0 -i 9 -k RTR
h -t 0.002218165 -s 21 -d -1 -p gpsr -e 38 -c 2 -a 0 -i 9 -k RTR
r -t 0.002218252 -s 24 -d -1 -p gpsr -e 38 -c 2 -a 0 -i 4 -k RTR
+ -t 0.002218252 -s 24 -d -1 -p gpsr -e 38 -c 2 -a 0 -i 10 -k RTR 
- -t 0.002218252 -s 24 -d -1 -p gpsr -e 38 -c 2 -a 0 -i 10 -k RTR
h -t 0.002218252 -s 24 -d -1 -p gpsr -e 38 -c 2 -a 0 -i 10 -k RTR
r -t 0.002218253 -s 28 -d -1 -p gpsr -e 38 -c 2 -a 0 -i 4 -k RTR
r -t 0.002218303 -s 9 -d -1 -p gpsr -e 38 -c 2 -a 0 -i 4 -k RTR
+ -t 0.002218303 -s 9 -d -1 -p gpsr -e 38 -c 2 -a 0 -i 11 -k RTR 
- -t 0.002218303 -s 9 -d -1 -p gpsr -e 38 -c 2 -a 0 -i 11 -k RTR
h -t 0.002218303 -s 9 -d -1 -p gpsr -e 38 -c 2 -a 0 -i 11 -k RTR
+ -t 0.002333252 -s 24 -d -1 -p gpsr -e 96 -c 2 -a 0 -i 10 -k MAC 
- -t 0.002333252 -s 24 -d -1 -p gpsr -e 96 -c 2 -a 0 -i 10 -k MAC
h -t 0.002333252 -s 24 -d -1 -p gpsr -e 96 -c 2 -a 0 -i 10 -k MAC
+ -t 0.002542954 -s 5 -d -1 -p gpsr -e 96 -c 2 -a 0 -i 2 -k MAC 
- -t 0.002542954 -s 5 -d -1 -p gpsr -e 96 -c 2 -a 0 -i 2 -k MAC
h -t 0.002542954 -s 5 -d -1 -p gpsr -e 96 -c 2 -a 0 -i 2 -k MAC
d -t 0.002543381 -s 16 -d -1 -p gpsr -e 96 -c 2 -a 0 -i 10 -k MAC
d -t 0.002543666 -s 14 -d -1 -p gpsr -e 96 -c 2 -a 0 -i 10 -k MAC
d -t 0.002543732 -s 1 -d -1 -p gpsr -e 96 -c 2 -a 0 -i 10 -k MAC
d -t 0.002543756 -s 11 -d -1 -p gpsr -e 96 -c 2 -a 0 -i 10 -k MAC
d -t 0.002543761 -s 22 -d -1 -p gpsr -e 96 -c 2 -a 0 -i 10 -k MAC
d -t 0.002543782 -s 4 -d -1 -p gpsr -e 96 -c 2 -a 0 -i 10 -k MAC
r -t 0.003101699 -s 21 -d -1 -p gpsr -e 38 -c 2 -a 0 -i 10 -k MAC
r -t 0.003101754 -s 9 -d -1 -p gpsr -e 38 -c 2 -a 0 -i 10 -k MAC
r -t 0.003101975 -s 12 -d -1 -p gpsr -e 38 -c 2 -a 0 -i 10 -k MAC
r -t 0.003102036 -s 23 -d -1 -p gpsr -e 38 -c 2 -a 0 -i 10 -k MAC
r -t 0.003102092 -s 2 -d -1 -p gpsr -e 38 -c 2 -a 0 -i 10 -k MAC
r -t 0.003102096 -s 17 -d -1 -p gpsr -e 38 -c 2 -a 0 -i 10 -k MAC
r -t 0.003102148 -s 19 -d -1 -p gpsr -e 38 -c 2 -a 0 -i 10 -k MAC
r -t 0.003102301 -s 8 -d -1 -p gpsr -e 38 -c 2 -a 0 -i 10 -k MAC
r -t 0.003102426 -s 27 -d -1 -p gpsr -e 38 -c 2 -a 0 -i 10 -k MAC
r -t 0.003102506 -s 3 -d -1 -p gpsr -e 38 -c 2 -a 0 -i 10 -k MAC
r -t 0.003126699 -s 21 -d -1 -p gpsr -e 38 -c 2 -a 0 -i 10 -k RTR
r -t 0.003126754 -s 9 -d -1 -p gpsr -e 38 -c 2 -a 0 -i 10 -k RTR
r -t 0.003126975 -s 12 -d -1 -p gpsr -e 38 -c 2 -a 0 -i 10 -k RTR
+ -t 0.003126975 -s 12 -d -1 -p gpsr -e 38 -c 2 -a 0 -i 12 -k RTR 
- -t 0.003126975 -s 12 -d -1 -p gpsr -e 38 -c 2 -a 0 -i 12 -k RTR
h -t 0.003126975 -s 12 -d -1 -p gpsr -e 38 -c 2 -a 0 -i 12 -k RTR
r -t 0.003127036 -s 23 -d -1 -p gpsr -e 38 -c 2 -a 0 -i 10 -k RTR
+ -t 0.003127036 -s 23 -d -1 -p gpsr -e 38 -c 2 -a 0 -i 13 -k RTR 
- -t 0.003127036 -s 23 -d -1 -p gpsr -e 38 -c 2 -a 0 -i 13 -k RTR
h -t 0.003127036 -s 23 -d -1 -p gpsr -e 38 -c 2 -a 0 -i 13 -k RTR
r -t 0.003127092 -s 2 -d -1 -p gpsr -e 38 -c 2 -a 0 -i 10 -k RTR
+ -t 0.003127092 -s 2 -d -1 -p gpsr -e 38 -c 2 -a 0 -i 14 -k RTR 
- -t 0.003127092 -s 2 -d -1 -p gpsr -e 38 -c 2 -a 0 -i 14 -k RTR
h -t 0.003127092 -s 2 -d -1 -p gpsr -e 38 -c 2 -a 0 -i 14 -k RTR
r -t 0.003127096 -s 17 -d -1 -p gpsr -e 38 -c 2 -a 0 -i 10 -k RTR
+ -t 0.003127096 -s 17 -d -1 -p gpsr -e 38 -c 2 -a 0 -i 15 -k RTR 
- -t 0.003127096 -s 17 -d -1 -p gpsr -e 38 -c 2 -a 0 -i 15 -k RTR
h -t 0.003127096 -s 17 -d -1 -p gpsr -e 38 -c 2 -a 0 -i 15 -k RTR
r -t 0.003127148 -s 19 -d -1 -p gpsr -e 38 -c 2 -a 0 -i 10 -k RTR
+ -t 0.003127148 -s 19 -d -1 -p gpsr -e 38 -c 2 -a 0 -i 16 -k RTR 
- -t 0.003127148 -s 19 -d -1 -p gpsr -e 38 -c 2 -a 0 -i 16 -k RTR
h -t 0.003127148 -s 19 -d -1 -p gpsr -e 38 -c 2 -a 0 -i 16 -k RTR
r -t 0.003127301 -s 8 -d -1 -p gpsr -e 38 -c 2 -a 0 -i 10 -k RTR
+ -t 0.003127301 -s 8 -d -1 -p gpsr -e 38 -c 2 -a 0 -i 17 -k RTR 
- -t 0.003127301 -s 8 -d -1 -p gpsr -e 38 -c 2 -a 0 -i 17 -k RTR
h -t 0.003127301 -s 8 -d -1 -p gpsr -e 38 -c 2 -a 0 -i 17 -k RTR
r -t 0.003127426 -s 27 -d -1 -p gpsr -e 38 -c 2 -a 0 -i 10 -k RTR
+ -t 0.003127426 -s 27 -d -1 -p gpsr -e 38 -c 2 -a 0 -i 18 -k RTR 
- -t 0.003127426 -s 27 -d -1 -p gpsr -e 38 -c 2 -a 0 -i 18 -k RTR
h -t 0.003127426 -s 27 -d -1 -p gpsr -e 38 -c 2 -a 0 -i 18 -k RTR
r -t 0.003127506 -s 3 -d -1 -p gpsr -e 38 -c 2 -a 0 -i 10 -k RTR
+ -t 0.003127506 -s 3 -d -1 -p gpsr -e 38 -c 2 -a 0 -i 19 -k RTR 
- -t 0.003127506 -s 3 -d -1 -p gpsr -e 38 -c 2 -a 0 -i 19 -k RTR
h -t 0.003127506 -s 3 -d -1 -p gpsr -e 38 -c 2 -a 0 -i 19 -k RTR
d -t 0.003311381 -s 16 -d -1 -p gpsr -e 96 -c 2 -a 0 -i 2 -k MAC
r -t 0.003311625 -s 25 -d -1 -p gpsr -e 38 -c 2 -a 0 -i 2 -k MAC
d -t 0.003311666 -s 14 -d -1 -p gpsr -e 96 -c 2 -a 0 -i 2 -k MAC
d -t 0.003311732 -s 1 -d -1 -p gpsr -e 96 -c 2 -a 0 -i 2 -k MAC
d -t 0.003311756 -s 11 -d -1 -p gpsr -e 96 -c 2 -a 0 -i 2 -k MAC
d -t 0.003311761 -s 22 -d -1 -p gpsr -e 96 -c 2 -a 0 -i 2 -k MAC
d -t 0.003311782 -s 4 -d -1 -p gpsr -e 96 -c 2 -a 0 -i 2 -k MAC
r -t 0.003311898 -s 28 -d -1 -p gpsr -e 38 -c 2 -a 0 -i 2 -k MAC
r -t 0.003336625 -s 25 -d -1 -p gpsr -e 38 -c 2 -a 0 -i 2 -k RTR
r -t 0.003336898 -s 28 -d -1 -p gpsr -e 38 -c 2 -a 0 -i 2 -k RTR
+ -t 0.003351699 -s 21 -d -1 -p gpsr -e 96 -c 2 -a 0 -i 9 -k MAC 
- -t 0.003351699 -s 21 -d -1 -p gpsr -e 96 -c 2 -a 0 -i 9 -k MAC
h -t 0.003351699 -s 21 -d -1 -p gpsr -e 96 -c 2 -a 0 -i 9 -k MAC
+ -t 0.003402426 -s 27 -d -1 -p gpsr -e 96 -c 2 -a 0 -i 18 -k MAC 
- -t 0.003402426 -s 27 -d -1 -p gpsr -e 96 -c 2 -a 0 -i 18 -k MAC
h -t 0.003402426 -s 27 -d -1 -p gpsr -e 96 -c 2 -a 0 -i 18 -k MAC
d -t 0.003402706 -s 19 -d -1 -p gpsr -e 96 -c 2 -a 0 -i 9 -k MAC
d -t 0.003403179 -s 12 -d -1 -p gpsr -e 96 -c 2 -a 0 -i 9 -k MAC
d -t 0.003403346 -s 2 -d -1 -p gpsr -e 96 -c 2 -a 0 -i 9 -k MAC
d -t 0.003403545 -s 1 -d -1 -p gpsr -e 96 -c 2 -a 0 -i 9 -k MAC
+ -t 0.003621625 -s 25 -d -1 -p gpsr -e 96 -c 2 -a 0 -i 1 -k MAC 
- -t 0.003621625 -s 25 -d -1 -p gpsr -e 96 -c 2 -a 0 -i 1 -k MAC
h -t 0.003621625 -s 25 -d -1 -p gpsr -e 96 -c 2 -a 0 -i 1 -k MAC
d -t 0.003622303 -s 22 -d -1 -p gpsr -e 96 -c 2 -a 0 -i 9 -k MAC
d -t 0.003622324 -s 4 -d -1 -p gpsr -e 96 -c 2 -a 0 -i 9 -k MAC
d -t 0.003622608 -s 11 -d -1 -p gpsr -e 96 -c 2 -a 0 -i 9 -k MAC
d -t 0.003622609 -s 14 -d -1 -p gpsr -e 96 -c 2 -a 0 -i 9 -k MAC
d -t 0.003622648 -s 16 -d -1 -p gpsr -e 96 -c 2 -a 0 -i 9 -k MAC
r -t 0.004119840 -s 9 -d -1 -p gpsr -e 38 -c 2 -a 0 -i 9 -k MAC
r -t 0.004120146 -s 24 -d -1 -p gpsr -e 38 -c 2 -a 0 -i 9 -k MAC
r -t 0.004120197 -s 23 -d -1 -p gpsr -e 38 -c 2 -a 0 -i 9 -k MAC
r -t 0.004120219 -s 17 -d -1 -p gpsr -e 38 -c 2 -a 0 -i 9 -k MAC
r -t 0.004120660 -s 8 -d -1 -p gpsr -e 38 -c 2 -a 0 -i 9 -k MAC
r -t 0.004144840 -s 9 -d -1 -p gpsr -e 38 -c 2 -a 0 -i 9 -k RTR
r -t 0.004145146 -s 24 -d -1 -p gpsr -e 38 -c 2 -a 0 -i 9 -k RTR
r -t 0.004145197 -s 23 -d -1 -p gpsr -e 38 -c 2 -a 0 -i 9 -k RTR
r -t 0.004145219 -s 17 -d -1 -p gpsr -e 38 -c 2 -a 0 -i 9 -k RTR
r -t 0.004145660 -s 8 -d -1 -p gpsr -e 38 -c 2 -a 0 -i 9 -k RTR
d -t 0.004170706 -s 19 -d -1 -p gpsr -e 96 -c 2 -a 0 -i 18 -k MAC
r -t 0.004171015 -s 18 -d -1 -p gpsr -e 38 -c 2 -a 0 -i 18 -k MAC
d -t 0.004171179 -s 12 -d -1 -p gpsr -e 96 -c 2 -a 0 -i 18 -k MAC
d -t 0.004171346 -s 2 -d -1 -p gpsr -e 96 -c 2 -a 0 -i 18 -k MAC
r -t 0.004171467 -s 3 -d -1 -p gpsr -e 38 -c 2 -a 0 -i 18 -k MAC
d -t 0.004171545 -s 1 -d -1 -p gpsr -e 96 -c 2 -a 0 -i 18 -k MAC
r -t 0.004171739 -s 20 -d -1 -p gpsr -e 38 -c 2 -a 0 -i 18 -k MAC
r -t 0.004196015 -s 18 -d -1 -p gpsr -e 38 -c 2 -a 0 -i 18 -k RTR
+ -t 0.004196015 -s 18 -d -1 -p gpsr -e 38 -c 2 -a 0 -i 20 -k RTR 
- -t 0.004196015 -s 18 -d -1 -p gpsr -e 38 -c 2 -a 0 -i 20 -k RTR
h -t 0.004196015 -s 18 -d -1 -p gpsr -e 38 -c 2 -a 0 -i 20 -k RTR
r -t 0.004196467 -s 3 -d -1 -p gpsr -e 38 -c 2 -a 0 -i 18 -k RTR
r -t 0.004196739 -s 20 -d -1 -p gpsr -e 38 -c 2 -a 0 -i 18 -k RTR
+ -t 0.004196739 -s 20 -d -1 -p gpsr -e 38 -c 2 -a 0 -i 21 -k RTR 
- -t 0.004196739 -s 20 -d -1 -p gpsr -e 38 -c 2 -a 0 -i 21 -k RTR
h -t 0.004196739 -s 20 -d -1 -p gpsr -e 38 -c 2 -a 0 -i 21 -k RTR
+ -t 0.004241467 -s 3 -d -1 -p gpsr -e 96 -c 2 -a 0 -i 19 -k MAC 
- -t 0.004241467 -s 3 -d -1 -p gpsr -e 96 -c 2 -a 0 -i 19 -k MAC
h -t 0.004241467 -s 3 -d -1 -p gpsr -e 96 -c 2 -a 0 -i 19 -k MAC
r -t 0.004390056 -s 28 -d -1 -p gpsr -e 38 -c 2 -a 0 -i 1 -k MAC
r -t 0.004390295 -s 5 -d -1 -p gpsr -e 38 -c 2 -a 0 -i 1 -k MAC
d -t 0.004390303 -s 22 -d -1 -p gpsr -e 96 -c 2 -a 0 -i 1 -k MAC
d -t 0.004390324 -s 4 -d -1 -p gpsr -e 96 -c 2 -a 0 -i 1 -k MAC
d -t 0.004390608 -s 11 -d -1 -p gpsr -e 96 -c 2 -a 0 -i 1 -k MAC
d -t 0.004390609 -s 14 -d -1 -p gpsr -e 96 -c 2 -a 0 -i 1 -k MAC
d -t 0.004390648 -s 16 -d -1 -p gpsr -e 96 -c 2 -a 0 -i 1 -k MAC
r -t 0.004415056 -s 28 -d -1 -p gpsr -e 38 -c 2 -a 0 -i 1 -k RTR
r -t 0.004415295 -s 5 -d -1 -p gpsr -e 38 -c 2 -a 0 -i 1 -k RTR
+ -t 0.004451015 -s 18 -d -1 -p gpsr -e 96 -c 2 -a 0 -i 20 -k MAC 
- -t 0.004451015 -s 18 -d -1 -p gpsr -e 96 -c 2 -a 0 -i 20 -k MAC
h -t 0.004451015 -s 18 -d -1 -p gpsr -e 96 -c 2 -a 0 -i 20 -k MAC
d -t 0.004451604 -s 27 -d -1 -p gpsr -e 96 -c 2 -a 0 -i 19 -k MAC
d -t 0.004451856 -s 19 -d -1 -p gpsr -e 96 -c 2 -a 0 -i 19 -k MAC
+ -t 0.004469840 -s 9 -d -1 -p gpsr -e 96 -c 2 -a 0 -i 11 -k MAC 
- -t 0.004469840 -s 9 -d -1 -p gpsr -e 96 -c 2 -a 0 -i 11 -k MAC
h -t 0.004469840 -s 9 -d -1 -p gpsr -e 96 -c 2 -a 0 -i 11 -k MAC
d -t 0.004470199 -s 23 -d -1 -p gpsr -e 96 -c 2 -a 0 -i 19 -k MAC
d -t 0.004470342 -s 24 -d -1 -p gpsr -e 96 -c 2 -a 0 -i 19 -k MAC
d -t 0.004470667 -s 8 -d -1 -p gpsr -e 96 -c 2 -a 0 -i 19 -k MAC
d -t 0.004470833 -s 12 -d -1 -p gpsr -e 96 -c 2 -a 0 -i 19 -k MAC
d -t 0.004471174 -s 19 -d -1 -p gpsr -e 96 -c 2 -a 0 -i 20 -k MAC
r -t 0.005009836 -s 20 -d -1 -p gpsr -e 38 -c 2 -a 0 -i 19 -k MAC
r -t 0.005009881 -s 2 -d -1 -p gpsr -e 38 -c 2 -a 0 -i 19 -k MAC
r -t 0.005034836 -s 20 -d -1 -p gpsr -e 38 -c 2 -a 0 -i 19 -k RTR
r -t 0.005034881 -s 2 -d -1 -p gpsr -e 38 -c 2 -a 0 -i 19 -k RTR
+ -t 0.005124648 -s 16 -d -1 -p gpsr -e 96 -c 2 -a 0 -i 7 -k MAC 
- -t 0.005124648 -s 16 -d -1 -p gpsr -e 96 -c 2 -a 0 -i 7 -k MAC
h -t 0.005124648 -s 16 -d -1 -p gpsr -e 96 -c 2 -a 0 -i 7 -k MAC
d -t 0.005125000 -s 1 -d -1 -p gpsr -e 96 -c 2 -a 0 -i 11 -k MAC
d -t 0.005125163 -s 14 -d -1 -p gpsr -e 96 -c 2 -a 0 -i 11 -k MAC
d -t 0.005125293 -s 11 -d -1 -p gpsr -e 96 -c 2 -a 0 -i 11 -k MAC
d -t 0.005125512 -s 22 -d -1 -p gpsr -e 96 -c 2 -a 0 -i 11 -k MAC
d -t 0.005125526 -s 4 -d -1 -p gpsr -e 96 -c 2 -a 0 -i 11 -k MAC
d -t 0.005125915 -s 19 -d -1 -p gpsr -e 96 -c 2 -a 0 -i 11 -k MAC
d -t 0.005219604 -s 27 -d -1 -p gpsr -e 96 -c 2 -a 0 -i 20 -k MAC
r -t 0.005220008 -s 15 -d -1 -p gpsr -e 38 -c 2 -a 0 -i 20 -k MAC
r -t 0.005220018 -s 6 -d -1 -p gpsr -e 38 -c 2 -a 0 -i 20 -k MAC
r -t 0.005220068 -s 7 -d -1 -p gpsr -e 38 -c 2 -a 0 -i 20 -k MAC
r -t 0.005220116 -s 26 -d -1 -p gpsr -e 38 -c 2 -a 0 -i 20 -k MAC
r -t 0.005220133 -s 0 -d -1 -p gpsr -e 38 -c 2 -a 0 -i 20 -k MAC
r -t 0.005220140 -s 13 -d -1 -p gpsr -e 38 -c 2 -a 0 -i 20 -k MAC
r -t 0.005220348 -s 10 -d -1 -p gpsr -e 38 -c 2 -a 0 -i 20 -k MAC
r -t 0.005237981 -s 21 -d -1 -p gpsr -e 38 -c 2 -a 0 -i 11 -k MAC
d -t 0.005238199 -s 23 -d -1 -p gpsr -e 96 -c 2 -a 0 -i 11 -k MAC
r -t 0.005238227 -s 17 -d -1 -p gpsr -e 38 -c 2 -a 0 -i 11 -k MAC
d -t 0.005238342 -s 24 -d -1 -p gpsr -e 96 -c 2 -a 0 -i 11 -k MAC
d -t 0.005238667 -s 8 -d -1 -p gpsr -e 96 -c 2 -a 0 -i 11 -k MAC
d -t 0.005238833 -s 12 -d -1 -p gpsr -e 96 -c 2 -a 0 -i 11 -k MAC
r -t 0.005245008 -s 15 -d -1 -p gpsr -e 38 -c 2 -a 0 -i 20 -k RTR
+ -t 0.005245008 -s 15 -d -1 -p gpsr -e 38 -c 2 -a 0 -i 22 -k RTR 
- -t 0.005245008 -s 15 -d -1 -p gpsr -e 38 -c 2 -a 0 -i 22 -k RTR
h -t 0.005245008 -s 15 -d -1 -p gpsr -e 38 -c 2 -a 0 -i 22 -k RTR
r -t 0.005245018 -s 6 -d -1 -p gpsr -e 38 -c 2 -a 0 -i 20 -k RTR
+ -t 0.005245018 -s 6 -d -1 -p gpsr -e 38 -c 2 -a 0 -i 23 -k RTR 
- -t 0.005245018 -s 6 -d -1 -p gpsr -e 38 -c 2 -a 0 -i 23 -k RTR
h -t 0.005245018 -s 6 -d -1 -p gpsr -e 38 -c 2 -a 0 -i 23 -k RTR
r -t 0.005245068 -s 7 -d -1 -p gpsr -e 38 -c 2 -a 0 -i 20 -k RTR
+ -t 0.005245068 -s 7 -d -1 -p gpsr -e 38 -c 2 -a 0 -i 24 -k RTR 
- -t 0.005245068 -s 7 -d -1 -p gpsr -e 38 -c 2 -a 0 -i 24 -k RTR
h -t 0.005245068 -s 7 -d -1 -p gpsr -e 38 -c 2 -a 0 -i 24 -k RTR
r -t 0.005245116 -s 26 -d -1 -p gpsr -e 38 -c 2 -a 0 -i 20 -k RTR
+ -t 0.005245116 -s 26 -d -1 -p gpsr -e 38 -c 2 -a 0 -i 25 -k RTR 
- -t 0.005245116 -s 26 -d -1 -p gpsr -e 38 -c 2 -a 0 -i 25 -k RTR
h -t 0.005245116 -s 26 -d -1 -p gpsr -e 38 -c 2 -a 0 -i 25 -k RTR
r -t 0.005245133 -s 0 -d -1 -p gpsr -e 38 -c 2 -a 0 -i 20 -k RTR
+ -t 0.005245133 -s 0 -d -1 -p gpsr -e 38 -c 2 -a 0 -i 26 -k RTR 
- -t 0.005245133 -s 0 -d -1 -p gpsr -e 38 -c 2 -a 0 -i 26 -k RTR
h -t 0.005245133 -s 0 -d -1 -p gpsr -e 38 -c 2 -a 0 -i 26 -k RTR
r -t 0.005245140 -s 13 -d -1 -p gpsr -e 38 -c 2 -a 0 -i 20 -k RTR
+ -t 0.005245140 -s 13 -d -1 -p gpsr -e 38 -c 2 -a 0 -i 27 -k RTR 
- -t 0.005245140 -s 13 -d -1 -p gpsr -e 38 -c 2 -a 0 -i 27 -k RTR
h -t 0.005245140 -s 13 -d -1 -p gpsr -e 38 -c 2 -a 0 -i 27 -k RTR
r -t 0.005245348 -s 10 -d -1 -p gpsr -e 38 -c 2 -a 0 -i 20 -k RTR
+ -t 0.005245348 -s 10 -d -1 -p gpsr -e 38 -c 2 -a 0 -i 28 -k RTR 
- -t 0.005245348 -s 10 -d -1 -p gpsr -e 38 -c 2 -a 0 -i 28 -k RTR
h -t 0.005245348 -s 10 -d -1 -p gpsr -e 38 -c 2 -a 0 -i 28 -k RTR
r -t 0.005262981 -s 21 -d -1 -p gpsr -e 38 -c 2 -a 0 -i 11 -k RTR
r -t 0.005263227 -s 17 -d -1 -p gpsr -e 38 -c 2 -a 0 -i 11 -k RTR
+ -t 0.005328227 -s 17 -d -1 -p gpsr -e 96 -c 2 -a 0 -i 15 -k MAC 
- -t 0.005328227 -s 17 -d -1 -p gpsr -e 96 -c 2 -a 0 -i 15 -k MAC
h -t 0.005328227 -s 17 -d -1 -p gpsr -e 96 -c 2 -a 0 -i 15 -k MAC
+ -t 0.005400116 -s 26 -d -1 -p gpsr -e 96 -c 2 -a 0 -i 25 -k MAC 
- -t 0.005400116 -s 26 -d -1 -p gpsr -e 96 -c 2 -a 0 -i 25 -k MAC
h -t 0.005400116 -s 26 -d -1 -p gpsr -e 96 -c 2 -a 0 -i 25 -k MAC
+ -t 0.005600133 -s 0 -d -1 -p gpsr -e 96 -c 2 -a 0 -i 26 -k MAC 
- -t 0.005600133 -s 0 -d -1 -p gpsr -e 96 -c 2 -a 0 -i 26 -k MAC
h -t 0.005600133 -s 0 -d -1 -p gpsr -e 96 -c 2 -a 0 -i 26 -k MAC
d -t 0.005601251 -s 18 -d -1 -p gpsr -e 96 -c 2 -a 0 -i 25 -k MAC
+ -t 0.005639836 -s 20 -d -1 -p gpsr -e 96 -c 2 -a 0 -i 21 -k MAC 
- -t 0.005639836 -s 20 -d -1 -p gpsr -e 96 -c 2 -a 0 -i 21 -k MAC
h -t 0.005639836 -s 20 -d -1 -p gpsr -e 96 -c 2 -a 0 -i 21 -k MAC
d -t 0.005640614 -s 2 -d -1 -p gpsr -e 96 -c 2 -a 0 -i 15 -k MAC
d -t 0.005640773 -s 12 -d -1 -p gpsr -e 96 -c 2 -a 0 -i 15 -k MAC
d -t 0.005641113 -s 19 -d -1 -p gpsr -e 96 -c 2 -a 0 -i 7 -k MAC
d -t 0.005893000 -s 1 -d -1 -p gpsr -e 96 -c 2 -a 0 -i 7 -k MAC
r -t 0.005893074 -s 5 -d -1 -p gpsr -e 38 -c 2 -a 0 -i 7 -k MAC
d -t 0.005893163 -s 14 -d -1 -p gpsr -e 96 -c 2 -a 0 -i 7 -k MAC
d -t 0.005893293 -s 11 -d -1 -p gpsr -e 96 -c 2 -a 0 -i 7 -k MAC
d -t 0.005893512 -s 22 -d -1 -p gpsr -e 96 -c 2 -a 0 -i 7 -k MAC
d -t 0.005893526 -s 4 -d -1 -p gpsr -e 96 -c 2 -a 0 -i 7 -k MAC
r -t 0.005893671 -s 25 -d -1 -p gpsr -e 38 -c 2 -a 0 -i 7 -k MAC
r -t 0.005918074 -s 5 -d -1 -p gpsr -e 38 -c 2 -a 0 -i 7 -k RTR
r -t 0.005918671 -s 25 -d -1 -p gpsr -e 38 -c 2 -a 0 -i 7 -k RTR
r -t 0.006096313 -s 23 -d -1 -p gpsr -e 38 -c 2 -a 0 -i 15 -k MAC
r -t 0.006096614 -s 9 -d -1 -p gpsr -e 38 -c 2 -a 0 -i 15 -k MAC
r -t 0.006096747 -s 21 -d -1 -p gpsr -e 38 -c 2 -a 0 -i 15 -k MAC
r -t 0.006096823 -s 8 -d -1 -p gpsr -e 38 -c 2 -a 0 -i 15 -k MAC
r -t 0.006097071 -s 24 -d -1 -p gpsr -e 38 -c 2 -a 0 -i 15 -k MAC
r -t 0.006121313 -s 23 -d -1 -p gpsr -e 38 -c 2 -a 0 -i 15 -k RTR
r -t 0.006121614 -s 9 -d -1 -p gpsr -e 38 -c 2 -a 0 -i 15 -k RTR
r -t 0.006121747 -s 21 -d -1 -p gpsr -e 38 -c 2 -a 0 -i 15 -k RTR
r -t 0.006121823 -s 8 -d -1 -p gpsr -e 38 -c 2 -a 0 -i 15 -k RTR
r -t 0.006122071 -s 24 -d -1 -p gpsr -e 38 -c 2 -a 0 -i 15 -k RTR
r -t 0.006168168 -s 7 -d -1 -p gpsr -e 38 -c 2 -a 0 -i 25 -k MAC
r -t 0.006168289 -s 6 -d -1 -p gpsr -e 38 -c 2 -a 0 -i 25 -k MAC
r -t 0.006168476 -s 15 -d -1 -p gpsr -e 38 -c 2 -a 0 -i 25 -k MAC
r -t 0.006168521 -s 13 -d -1 -p gpsr -e 38 -c 2 -a 0 -i 25 -k MAC
r -t 0.006169401 -s 10 -d -1 -p gpsr -e 38 -c 2 -a 0 -i 25 -k MAC
+ -t 0.006186313 -s 23 -d -1 -p gpsr -e 96 -c 2 -a 0 -i 13 -k MAC 
- -t 0.006186313 -s 23 -d -1 -p gpsr -e 96 -c 2 -a 0 -i 13 -k MAC
h -t 0.006186313 -s 23 -d -1 -p gpsr -e 96 -c 2 -a 0 -i 13 -k MAC
d -t 0.006187288 -s 2 -d -1 -p gpsr -e 96 -c 2 -a 0 -i 21 -k MAC
d -t 0.006187348 -s 12 -d -1 -p gpsr -e 96 -c 2 -a 0 -i 21 -k MAC
r -t 0.006193168 -s 7 -d -1 -p gpsr -e 38 -c 2 -a 0 -i 25 -k RTR
r -t 0.006193289 -s 6 -d -1 -p gpsr -e 38 -c 2 -a 0 -i 25 -k RTR
r -t 0.006193476 -s 15 -d -1 -p gpsr -e 38 -c 2 -a 0 -i 25 -k RTR
r -t 0.006193521 -s 13 -d -1 -p gpsr -e 38 -c 2 -a 0 -i 25 -k RTR
r -t 0.006194401 -s 10 -d -1 -p gpsr -e 38 -c 2 -a 0 -i 25 -k RTR
+ -t 0.006239401 -s 10 -d -1 -p gpsr -e 96 -c 2 -a 0 -i 28 -k MAC 
- -t 0.006239401 -s 10 -d -1 -p gpsr -e 96 -c 2 -a 0 -i 28 -k MAC
h -t 0.006239401 -s 10 -d -1 -p gpsr -e 96 -c 2 -a 0 -i 28 -k MAC
d -t 0.006240734 -s 18 -d -1 -p gpsr -e 96 -c 2 -a 0 -i 26 -k MAC
r -t 0.006369125 -s 29 -d -1 -p gpsr -e 38 -c 2 -a 0 -i 26 -k MAC
r -t 0.006394125 -s 29 -d -1 -p gpsr -e 38 -c 2 -a 0 -i 26 -k RTR
+ -t 0.006394125 -s 29 -d -1 -p gpsr -e 38 -c 2 -a 0 -i 29 -k RTR 
- -t 0.006394125 -s 29 -d -1 -p gpsr -e 38 -c 2 -a 0 -i 29 -k RTR
h -t 0.006394125 -s 29 -d -1 -p gpsr -e 38 -c 2 -a 0 -i 29 -k RTR
r -t 0.006408205 -s 3 -d -1 -p gpsr -e 38 -c 2 -a 0 -i 21 -k MAC
d -t 0.006409113 -s 19 -d -1 -p gpsr -e 96 -c 2 -a 0 -i 21 -k MAC
r -t 0.006409148 -s 27 -d -1 -p gpsr -e 38 -c 2 -a 0 -i 21 -k MAC
r -t 0.006433205 -s 3 -d -1 -p gpsr -e 38 -c 2 -a 0 -i 21 -k RTR
r -t 0.006434148 -s 27 -d -1 -p gpsr -e 38 -c 2 -a 0 -i 21 -k RTR
+ -t 0.006527000 -s 1 -d -1 -p gpsr -e 96 -c 2 -a 0 -i 8 -k MAC 
- -t 0.006527000 -s 1 -d -1 -p gpsr -e 96 -c 2 -a 0 -i 8 -k MAC
h -t 0.006527000 -s 1 -d -1 -p gpsr -e 96 -c 2 -a 0 -i 8 -k MAC
d -t 0.006527562 -s 14 -d -1 -p gpsr -e 96 -c 2 -a 0 -i 13 -k MAC
d -t 0.006527687 -s 11 -d -1 -p gpsr -e 96 -c 2 -a 0 -i 13 -k MAC
d -t 0.006527718 -s 24 -d -1 -p gpsr -e 96 -c 2 -a 0 -i 13 -k MAC
d -t 0.006528150 -s 12 -d -1 -p gpsr -e 96 -c 2 -a 0 -i 13 -k MAC
+ -t 0.006589125 -s 29 -d -1 -p gpsr -e 96 -c 2 -a 0 -i 29 -k MAC 
- -t 0.006589125 -s 29 -d -1 -p gpsr -e 96 -c 2 -a 0 -i 29 -k MAC
h -t 0.006589125 -s 29 -d -1 -p gpsr -e 96 -c 2 -a 0 -i 29 -k MAC
r -t 0.006954400 -s 17 -d -1 -p gpsr -e 38 -c 2 -a 0 -i 13 -k MAC
r -t 0.006954672 -s 9 -d -1 -p gpsr -e 38 -c 2 -a 0 -i 13 -k MAC
r -t 0.006954811 -s 21 -d -1 -p gpsr -e 38 -c 2 -a 0 -i 13 -k MAC
r -t 0.006954856 -s 8 -d -1 -p gpsr -e 38 -c 2 -a 0 -i 13 -k MAC
d -t 0.006955288 -s 2 -d -1 -p gpsr -e 96 -c 2 -a 0 -i 13 -k MAC
r -t 0.006979400 -s 17 -d -1 -p gpsr -e 38 -c 2 -a 0 -i 13 -k RTR
r -t 0.006979672 -s 9 -d -1 -p gpsr -e 38 -c 2 -a 0 -i 13 -k RTR
r -t 0.006979811 -s 21 -d -1 -p gpsr -e 38 -c 2 -a 0 -i 13 -k RTR
r -t 0.006979856 -s 8 -d -1 -p gpsr -e 38 -c 2 -a 0 -i 13 -k RTR
r -t 0.007008302 -s 13 -d -1 -p gpsr -e 38 -c 2 -a 0 -i 28 -k MAC
r -t 0.007008327 -s 15 -d -1 -p gpsr -e 38 -c 2 -a 0 -i 28 -k MAC
r -t 0.007008684 -s 7 -d -1 -p gpsr -e 38 -c 2 -a 0 -i 28 -k MAC
r -t 0.007008685 -s 26 -d -1 -p gpsr -e 38 -c 2 -a 0 -i 28 -k MAC
d -t 0.007008734 -s 18 -d -1 -p gpsr -e 96 -c 2 -a 0 -i 28 -k MAC
r -t 0.007033302 -s 13 -d -1 -p gpsr -e 38 -c 2 -a 0 -i 28 -k RTR
r -t 0.007033327 -s 15 -d -1 -p gpsr -e 38 -c 2 -a 0 -i 28 -k RTR
r -t 0.007033684 -s 7 -d -1 -p gpsr -e 38 -c 2 -a 0 -i 28 -k RTR
r -t 0.007033685 -s 26 -d -1 -p gpsr -e 38 -c 2 -a 0 -i 28 -k RTR
+ -t 0.007063360 -s 6 -d -1 -p gpsr -e 96 -c 2 -a 0 -i 23 -k MAC 
- -t 0.007063360 -s 6 -d -1 -p gpsr -e 96 -c 2 -a 0 -i 23 -k MAC
h -t 0.007063360 -s 6 -d -1 -p gpsr -e 96 -c 2 -a 0 -i 23 -k MAC
d -t 0.007064586 -s 0 -d -1 -p gpsr -e 96 -c 2 -a 0 -i 29 -k MAC
+ -t 0.007124856 -s 8 -d -1 -p gpsr -e 96 -c 2 -a 0 -i 17 -k MAC 
- -t 0.007124856 -s 8 -d -1 -p gpsr -e 96 -c 2 -a 0 -i 17 -k MAC
h -t 0.007124856 -s 8 -d -1 -p gpsr -e 96 -c 2 -a 0 -i 17 -k MAC
d -t 0.007125742 -s 12 -d -1 -p gpsr -e 96 -c 2 -a 0 -i 8 -k MAC
d -t 0.007125905 -s 24 -d -1 -p gpsr -e 96 -c 2 -a 0 -i 8 -k MAC
r -t 0.007295352 -s 16 -d -1 -p gpsr -e 38 -c 2 -a 0 -i 8 -k MAC
d -t 0.007295562 -s 14 -d -1 -p gpsr -e 96 -c 2 -a 0 -i 8 -k MAC
d -t 0.007295687 -s 11 -d -1 -p gpsr -e 96 -c 2 -a 0 -i 8 -k MAC
r -t 0.007295778 -s 5 -d -1 -p gpsr -e 38 -c 2 -a 0 -i 8 -k MAC
r -t 0.007295925 -s 19 -d -1 -p gpsr -e 38 -c 2 -a 0 -i 8 -k MAC
r -t 0.007296030 -s 22 -d -1 -p gpsr -e 38 -c 2 -a 0 -i 8 -k MAC
r -t 0.007296037 -s 4 -d -1 -p gpsr -e 38 -c 2 -a 0 -i 8 -k MAC
r -t 0.007296119 -s 27 -d -1 -p gpsr -e 38 -c 2 -a 0 -i 8 -k MAC
r -t 0.007320352 -s 16 -d -1 -p gpsr -e 38 -c 2 -a 0 -i 8 -k RTR
r -t 0.007320778 -s 5 -d -1 -p gpsr -e 38 -c 2 -a 0 -i 8 -k RTR
r -t 0.007320925 -s 19 -d -1 -p gpsr -e 38 -c 2 -a 0 -i 8 -k RTR
r -t 0.007321030 -s 22 -d -1 -p gpsr -e 38 -c 2 -a 0 -i 8 -k RTR
r -t 0.007321037 -s 4 -d -1 -p gpsr -e 38 -c 2 -a 0 -i 8 -k RTR
r -t 0.007321119 -s 27 -d -1 -p gpsr -e 38 -c 2 -a 0 -i 8 -k RTR
+ -t 0.007366030 -s 22 -d -1 -p gpsr -e 96 -c 2 -a 0 -i 3 -k MAC 
- -t 0.007366030 -s 22 -d -1 -p gpsr -e 96 -c 2 -a 0 -i 3 -k MAC
h -t 0.007366030 -s 22 -d -1 -p gpsr -e 96 -c 2 -a 0 -i 3 -k MAC
d -t 0.007367086 -s 21 -d -1 -p gpsr -e 96 -c 2 -a 0 -i 17 -k MAC