n -t * -s 0  -x 0 -y 0 -Z 0 -z 50  -v circle -c black
n -t * -s 1  -x 0 -y 0 -Z 0 -z 50  -v circle -c black
n -t * -s 2  -x 0 -y 0 -Z 0 -z 50  -v circle -c black
n -t * -s 3  -x 0 -y 0 -Z 0 -z 50  -v circle -c black
n -t * -s 4  -x 0 -y 0 -Z 0 -z 50  -v circle -c black
n -t * -s 5  -x 0 -y 0 -Z 0 -z 50  -v circle -c black
n -t * -s 6  -x 0 -y 0 -Z 0 -z 50  -v circle -c black
n -t * -s 7  -x 0 -y 0 -Z 0 -z 50  -v circle -c black
n -t * -s 8  -x 0 -y 0 -Z 0 -z 50  -v circle -c black
n -t * -s 9  -x 0 -y 0 -Z 0 -z 50  -v circle -c black
n -t * -s 10  -x 0 -y 0 -Z 0 -z 50  -v circle -c black
n -t * -s 11  -x 0 -y 0 -Z 0 -z 50  -v circle -c black
n -t * -s 12  -x 0 -y 0 -Z 0 -z 50  -v circle -c black
n -t * -s 13  -x 0 -y 0 -Z 0 -z 50  -v circle -c black
n -t * -s 14  -x 0 -y 0 -Z 0 -z 50  -v circle -c black
n -t * -s 15  -x 0 -y 0 -Z 0 -z 50  -v circle -c black
n -t * -s 16  -x 0 -y 0 -Z 0 -z 50  -v circle -c black
n -t * -s 17  -x 0 -y 0 -Z 0 -z 50  -v circle -c black
n -t * -s 18  -x 0 -y 0 -Z 0 -z 50  -v circle -c black
n -t * -s 19  -x 0 -y 0 -Z 0 -z 50  -v circle -c black
n -t * -s 20  -x 0 -y 0 -Z 0 -z 50  -v circle -c black
n -t * -s 21  -x 0 -y 0 -Z 0 -z 50  -v circle -c black
n -t * -s 22  -x 0 -y 0 -Z 0 -z 50  -v circle -c black
n -t * -s 23  -x 0 -y 0 -Z 0 -z 50  -v circle -c black
n -t * -s 24  -x 0 -y 0 -Z 0 -z 50  -v circle -c black
n -t * -s 25  -x 0 -y 0 -Z 0 -z 50  -v circle -c black
n -t * -s 26  -x 0 -y 0 -Z 0 -z 50  -v circle -c black
n -t * -s 27  -x 0 -y 0 -Z 0 -z 50  -v circle -c black
n -t * -s 28  -x 0 -y 0 -Z 0 -z 50  -v circle -c black
n -t * -s 29  -x 0 -y 0 -Z 0 -z 50  -v circle -c black
V -t * -v 1.0a5 -a 0
W -t * -x 1000 -y 1000
A -t * -n 1 -p 0 -o 0x7fffffff -c 30 -a 1
A -t * -h 1 -m 1073741823 -s 0
c -t * -i _o605 -n blue
c -t * -i _o542 -n blue
c -t * -i _o164 -n blue
c -t * -i _o227 -n blue
c -t * -i _o479 -n blue
c -t * -i _o311 -n blue
c -t * -i _o626 -n blue
c -t * -i _o563 -n blue
c -t * -i _o185 -n blue
c -t * -i _o248 -n blue
c -t * -i _o332 -n blue
c -t * -i _o17 -n blue
c -t * -i _o584 -n blue
c -t * -i _o269 -n blue
c -t * -i _o101 -n blue
c -t * -i _o416 -n blue
c -t * -i _o353 -n blue
c -t * -i _o290 -n blue
c -t * -i _o38 -n blue
c -t * -i _o500 -n blue
c -t * -i _o122 -n blue
c -t * -i _o437 -n blue
c -t * -i _o374 -n blue
c -t * -i _o59 -n blue
c -t * -i _o521 -n blue
c -t * -i _o80 -n blue
c -t * -i _o143 -n blue
c -t * -i _o206 -n blue
c -t * -i _o458 -n blue
c -t * -i _o395 -n blue
n -t 0.000000 -s 0 -x 867.600000 -y 194.350000 -U 0.000000 -V 0.000000 -T 0.000000
n -t 0.000000 -s 1 -x 197.650000 -y 263.810000 -U 0.000000 -V 0.000000 -T 0.000000
n -t 0.000000 -s 2 -x 139.040000 -y 197.650000 -U 0.000000 -V 0.000000 -T 0.000000
n -t 0.000000 -s 3 -x 586.350000 -y 873.390000 -U 0.000000 -V 0.000000 -T 0.000000
n -t 0.000000 -s 4 -x 981.650000 -y 953.640000 -U 0.000000 -V 0.000000 -T 0.000000
n -t 0.000000 -s 5 -x 267.350000 -y 883.650000 -U 0.000000 -V 0.000000 -T 0.000000
n -t 0.000000 -s 6 -x 880.350000 -y 729.130000 -U 0.000000 -V 0.000000 -T 0.000000
n -t 0.000000 -s 7 -x 491.650000 -y 616.160000 -U 0.000000 -V 0.000000 -T 0.000000
n -t 0.000000 -s 8 -x 96.350000 -y 969.920000 -U 0.000000 -V 0.000000 -T 0.000000
n -t 0.000000 -s 9 -x 940.150000 -y 785.650000 -U 0.000000 -V 0.000000 -T 0.000000
n -t 0.000000 -s 10 -x 444.920000 -y 1.650000 -U 0.000000 -V 0.000000 -T 0.000000
n -t 0.000000 -s 11 -x 112.700000 -y 1.650000 -U 0.000000 -V 0.000000 -T 0.000000
n -t 0.000000 -s 12 -x 776.110000 -y 684.350000 -U 0.000000 -V 0.000000 -T 0.000000
n -t 0.000000 -s 13 -x 684.350000 -y 853.880000 -U 0.000000 -V 0.000000 -T 0.000000
n -t 0.000000 -s 14 -x 782.350000 -y 707.410000 -U 0.000000 -V 0.000000 -T 0.000000
n -t 0.000000 -s 15 -x 7.210000 -y 390.350000 -U 0.000000 -V 0.000000 -T 0.000000
n -t 0.000000 -s 16 -x 687.650000 -y 576.890000 -U 0.000000 -V 0.000000 -T 0.000000
n -t 0.000000 -s 17 -x 794.680000 -y 488.350000 -U 0.000000 -V 0.000000 -T 0.000000
n -t 0.000000 -s 18 -x 292.350000 -y 145.870000 -U 0.000000 -V 0.000000 -T 0.000000
n -t 0.000000 -s 19 -x 804.190000 -y 1.650000 -U 0.000000 -V 0.000000 -T 0.000000
n -t 0.000000 -s 20 -x 292.350000 -y 154.330000 -U 0.000000 -V 0.000000 -T 0.000000
n -t 0.000000 -s 21 -x 144.020000 -y 292.350000 -U 0.000000 -V 0.000000 -T 0.000000
n -t 0.000000 -s 22 -x 978.350000 -y 917.190000 -U 0.000000 -V 0.000000 -T 0.000000
n -t 0.000000 -s 23 -x 957.040000 -y 1.650000 -U 0.000000 -V 0.000000 -T 0.000000
n -t 0.000000 -s 24 -x 545.490000 -y 978.350000 -U 0.000000 -V 0.000000 -T 0.000000
n -t 0.000000 -s 25 -x 390.350000 -y 84.150000 -U 0.000000 -V 0.000000 -T 0.000000
n -t 0.000000 -s 26 -x 880.350000 -y 605.440000 -U 0.000000 -V 0.000000 -T 0.000000
n -t 0.000000 -s 27 -x 137.570000 -y 684.350000 -U 0.000000 -V 0.000000 -T 0.000000
n -t 0.000000 -s 28 -x 0.000000 -y 900.000000 -U 0.000000 -V 0.000000 -T 0.000000
n -t 0.000000 -s 29 -x 900.000000 -y 0.000000 -U 0.000000 -V 0.000000 -T 0.000000
n -t 0.000000 -s 0 -x 867.600000 -y 194.350000 -U 0.000000 -V 0.000000 -T 0.000000
n -t 0.000000 -s 1 -x 197.650000 -y 263.810000 -U 0.000000 -V 0.000000 -T 0.000000
+ -t 0.000020000 -s 28 -d -1 -p gpsr -e 38 -c 2 -a 0 -i 0 -k RTR 
- -t 0.000020000 -s 28 -d -1 -p gpsr -e 38 -c 2 -a 0 -i 0 -k RTR
h -t 0.000020000 -s 28 -d -1 -p gpsr -e 38 -c 2 -a 0 -i 0 -k RTR
+ -t 0.000555000 -s 28 -d -1 -p gpsr -e 96 -c 2 -a 0 -i 0 -k MAC 
- -t 0.000555000 -s 28 -d -1 -p gpsr -e 96 -c 2 -a 0 -i 0 -k MAC
h -t 0.000555000 -s 28 -d -1 -p gpsr -e 96 -c 2 -a 0 -i 0 -k MAC
r -t 0.001323397 -s 8 -d -1 -p gpsr -e 38 -c 2 -a 0 -i 0 -k MAC
r -t 0.001323853 -s 27 -d -1 -p gpsr -e 38 -c 2 -a 0 -i 0 -k MAC
r -t 0.001323893 -s 5 -d -1 -p gpsr -e 38 -c 2 -a 0 -i 0 -k MAC
r -t 0.001348397 -s 8 -d -1 -p gpsr -e 38 -c 2 -a 0 -i 0 -k RTR
+ -t 0.001348397 -s 8 -d -1 -p gpsr -e 38 -c 2 -a 0 -i 1 -k RTR 
- -t 0.001348397 -s 8 -d -1 -p gpsr -e 38 -c 2 -a 0 -i 1 -k RTR
h -t 0.001348397 -s 8 -d -1 -p gpsr -e 38 -c 2 -a 0 -i 1 -k RTR
r -t 0.001348853 -s 27 -d -1 -p gpsr -e 38 -c 2 -a 0 -i 0 -k RTR
+ -t 0.001348853 -s 27 -d -1 -p gpsr -e 38 -c 2 -a 0 -i 2 -k RTR 
- -t 0.001348853 -s 27 -d -1 -p gpsr -e 38 -c 2 -a 0 -i 2 -k RTR
h -t 0.001348853 -s 27 -d -1 -p gpsr -e 38 -c 2 -a 0 -i 2 -k RTR
r -t 0.001348893 -s 5 -d -1 -p gpsr -e 38 -c 2 -a 0 -i 0 -k RTR
+ -t 0.001348893 -s 5 -d -1 -p gpsr -e 38 -c 2 -a 0 -i 3 -k RTR 
- -t 0.001348893 -s 5 -d -1 -p gpsr -e 38 -c 2 -a 0 -i 3 -k RTR
h -t 0.001348893 -s 5 -d -1 -p gpsr -e 38 -c 2 -a 0 -i 3 -k RTR
+ -t 0.001723853 -s 27 -d -1 -p gpsr -e 96 -c 2 -a 0 -i 2 -k MAC 
- -t 0.001723853 -s 27 -d -1 -p gpsr -e 96 -c 2 -a 0 -i 2 -k MAC
h -t 0.001723853 -s 27 -d -1 -p gpsr -e 96 -c 2 -a 0 -i 2 -k MAC
r -t 0.002492645 -s 5 -d -1 -p gpsr -e 38 -c 2 -a 0 -i 2 -k MAC
r -t 0.002492705 -s 28 -d -1 -p gpsr -e 38 -c 2 -a 0 -i 2 -k MAC
r -t 0.002492814 -s 8 -d -1 -p gpsr -e 38 -c 2 -a 0 -i 2 -k MAC
r -t 0.002492925 -s 15 -d -1 -p gpsr -e 38 -c 2 -a 0 -i 2 -k MAC
r -t 0.002493055 -s 7 -d -1 -p gpsr -e 38 -c 2 -a 0 -i 2 -k MAC
r -t 0.002493159 -s 21 -d -1 -p gpsr -e 38 -c 2 -a 0 -i 2 -k MAC
r -t 0.002517645 -s 5 -d -1 -p gpsr -e 38 -c 2 -a 0 -i 2 -k RTR
r -t 0.002517705 -s 28 -d -1 -p gpsr -e 38 -c 2 -a 0 -i 2 -k RTR
r -t 0.002517814 -s 8 -d -1 -p gpsr -e 38 -c 2 -a 0 -i 2 -k RTR
r -t 0.002517925 -s 15 -d -1 -p gpsr -e 38 -c 2 -a 0 -i 2 -k RTR
+ -t 0.002517925 -s 15 -d -1 -p gpsr -e 38 -c 2 -a 0 -i 4 -k RTR 
- -t 0.002517925 -s 15 -d -1 -p gpsr -e 38 -c 2 -a 0 -i 4 -k RTR
h -t 0.002517925 -s 15 -d -1 -p gpsr -e 38 -c 2 -a 0 -i 4 -k RTR
r -t 0.002518055 -s 7 -d -1 -p gpsr -e 38 -c 2 -a 0 -i 2 -k RTR
+ -t 0.002518055 -s 7 -d -1 -p gpsr -e 38 -c 2 -a 0 -i 5 -k RTR 
- -t 0.002518055 -s 7 -d -1 -p gpsr -e 38 -c 2 -a 0 -i 5 -k RTR
h -t 0.002518055 -s 7 -d -1 -p gpsr -e 38 -c 2 -a 0 -i 5 -k RTR
r -t 0.002518159 -s 21 -d -1 -p gpsr -e 38 -c 2 -a 0 -i 2 -k RTR
+ -t 0.002518159 -s 21 -d -1 -p gpsr -e 38 -c 2 -a 0 -i 6 -k RTR 
- -t 0.002518159 -s 21 -d -1 -p gpsr -e 38 -c 2 -a 0 -i 6 -k RTR
h -t 0.002518159 -s 21 -d -1 -p gpsr -e 38 -c 2 -a 0 -i 6 -k RTR
+ -t 0.002562645 -s 5 -d -1 -p gpsr -e 96 -c 2 -a 0 -i 3 -k MAC 
- -t 0.002562645 -s 5 -d -1 -p gpsr -e 96 -c 2 -a 0 -i 3 -k MAC
h -t 0.002562645 -s 5 -d -1 -p gpsr -e 96 -c 2 -a 0 -i 3 -k MAC
+ -t 0.002752925 -s 15 -d -1 -p gpsr -e 96 -c 2 -a 0 -i 4 -k MAC 
- -t 0.002752925 -s 15 -d -1 -p gpsr -e 96 -c 2 -a 0 -i 4 -k MAC
h -t 0.002752925 -s 15 -d -1 -p gpsr -e 96 -c 2 -a 0 -i 4 -k MAC
d -t 0.002753997 -s 27 -d -1 -p gpsr -e 96 -c 2 -a 0 -i 3 -k MAC
r -t 0.003331284 -s 8 -d -1 -p gpsr -e 38 -c 2 -a 0 -i 3 -k MAC
r -t 0.003331538 -s 28 -d -1 -p gpsr -e 38 -c 2 -a 0 -i 3 -k MAC
r -t 0.003331625 -s 24 -d -1 -p gpsr -e 38 -c 2 -a 0 -i 3 -k MAC
r -t 0.003331709 -s 3 -d -1 -p gpsr -e 38 -c 2 -a 0 -i 3 -k MAC
r -t 0.003331809 -s 7 -d -1 -p gpsr -e 38 -c 2 -a 0 -i 3 -k MAC
r -t 0.003356284 -s 8 -d -1 -p gpsr -e 38 -c 2 -a 0 -i 3 -k RTR
r -t 0.003356538 -s 28 -d -1 -p gpsr -e 38 -c 2 -a 0 -i 3 -k RTR
r -t 0.003356625 -s 24 -d -1 -p gpsr -e 38 -c 2 -a 0 -i 3 -k RTR
+ -t 0.003356625 -s 24 -d -1 -p gpsr -e 38 -c 2 -a 0 -i 7 -k RTR 
- -t 0.003356625 -s 24 -d -1 -p gpsr -e 38 -c 2 -a 0 -i 7 -k RTR
h -t 0.003356625 -s 24 -d -1 -p gpsr -e 38 -c 2 -a 0 -i 7 -k RTR
r -t 0.003356709 -s 3 -d -1 -p gpsr -e 38 -c 2 -a 0 -i 3 -k RTR
+ -t 0.003356709 -s 3 -d -1 -p gpsr -e 38 -c 2 -a 0 -i 8 -k RTR 
- -t 0.003356709 -s 3 -d -1 -p gpsr -e 38 -c 2 -a 0 -i 8 -k RTR
h -t 0.003356709 -s 3 -d -1 -p gpsr -e 38 -c 2 -a 0 -i 8 -k RTR
r -t 0.003356809 -s 7 -d -1 -p gpsr -e 38 -c 2 -a 0 -i 3 -k RTR
r -t 0.003521486 -s 21 -d -1 -p gpsr -e 38 -c 2 -a 0 -i 4 -k MAC
r -t 0.003521687 -s 1 -d -1 -p gpsr -e 38 -c 2 -a 0 -i 4 -k MAC
r -t 0.003521703 -s 2 -d -1 -p gpsr -e 38 -c 2 -a 0 -i 4 -k MAC
d -t 0.003521997 -s 27 -d -1 -p gpsr -e 96 -c 2 -a 0 -i 4 -k MAC
r -t 0.003522158 -s 20 -d -1 -p gpsr -e 38 -c 2 -a 0 -i 4 -k MAC
r -t 0.003522177 -s 18 -d -1 -p gpsr -e 38 -c 2 -a 0 -i 4 -k MAC
r -t 0.003546486 -s 21 -d -1 -p gpsr -e 38 -c 2 -a 0 -i 4 -k RTR
r -t 0.003546687 -s 1 -d -1 -p gpsr -e 38 -c 2 -a 0 -i 4 -k RTR
+ -t 0.003546687 -s 1 -d -1 -p gpsr -e 38 -c 2 -a 0 -i 9 -k RTR 
- -t 0.003546687 -s 1 -d -1 -p gpsr -e 38 -c 2 -a 0 -i 9 -k RTR
h -t 0.003546687 -s 1 -d -1 -p gpsr -e 38 -c 2 -a 0 -i 9 -k RTR
r -t 0.003546703 -s 2 -d -1 -p gpsr -e 38 -c 2 -a 0 -i 4 -k RTR
+ -t 0.003546703 -s 2 -d -1 -p gpsr -e 38 -c 2 -a 0 -i 10 -k RTR 
- -t 0.003546703 -s 2 -d -1 -p gpsr -e 38 -c 2 -a 0 -i 10 -k RTR
h -t 0.003546703 -s 2 -d -1 -p gpsr -e 38 -c 2 -a 0 -i 10 -k RTR
r -t 0.003547158 -s 20 -d -1 -p gpsr -e 38 -c 2 -a 0 -i 4 -k RTR
+ -t 0.003547158 -s 20 -d -1 -p gpsr -e 38 -c 2 -a 0 -i 11 -k RTR 
- -t 0.003547158 -s 20 -d -1 -p gpsr -e 38 -c 2 -a 0 -i 11 -k RTR
h -t 0.003547158 -s 20 -d -1 -p gpsr -e 38 -c 2 -a 0 -i 11 -k RTR
r -t 0.003547177 -s 18 -d -1 -p gpsr -e 38 -c 2 -a 0 -i 4 -k RTR
+ -t 0.003547177 -s 18 -d -1 -p gpsr -e 38 -c 2 -a 0 -i 12 -k RTR 
- -t 0.003547177 -s 18 -d -1 -p gpsr -e 38 -c 2 -a 0 -i 12 -k RTR
h -t 0.003547177 -s 18 -d -1 -p gpsr -e 38 -c 2 -a 0 -i 12 -k RTR
+ -t 0.003581809 -s 7 -d -1 -p gpsr -e 96 -c 2 -a 0 -i 5 -k MAC 
- -t 0.003581809 -s 7 -d -1 -p gpsr -e 96 -c 2 -a 0 -i 5 -k MAC
h -t 0.003581809 -s 7 -d -1 -p gpsr -e 96 -c 2 -a 0 -i 5 -k MAC
+ -t 0.003621284 -s 8 -d -1 -p gpsr -e 96 -c 2 -a 0 -i 1 -k MAC 
- -t 0.003621284 -s 8 -d -1 -p gpsr -e 96 -c 2 -a 0 -i 1 -k MAC
h -t 0.003621284 -s 8 -d -1 -p gpsr -e 96 -c 2 -a 0 -i 1 -k MAC
d -t 0.003621922 -s 5 -d -1 -p gpsr -e 96 -c 2 -a 0 -i 5 -k MAC
d -t 0.003622246 -s 27 -d -1 -p gpsr -e 96 -c 2 -a 0 -i 5 -k MAC
+ -t 0.003651486 -s 21 -d -1 -p gpsr -e 96 -c 2 -a 0 -i 6 -k MAC 
- -t 0.003651486 -s 21 -d -1 -p gpsr -e 96 -c 2 -a 0 -i 6 -k MAC
h -t 0.003651486 -s 21 -d -1 -p gpsr -e 96 -c 2 -a 0 -i 6 -k MAC
d -t 0.003652792 -s 27 -d -1 -p gpsr -e 96 -c 2 -a 0 -i 1 -k MAC
r -t 0.004350475 -s 16 -d -1 -p gpsr -e 38 -c 2 -a 0 -i 5 -k MAC
r -t 0.004350723 -s 3 -d -1 -p gpsr -e 38 -c 2 -a 0 -i 5 -k MAC
r -t 0.004350784 -s 12 -d -1 -p gpsr -e 38 -c 2 -a 0 -i 5 -k MAC
r -t 0.004350825 -s 14 -d -1 -p gpsr -e 38 -c 2 -a 0 -i 5 -k MAC
r -t 0.004350829 -s 13 -d -1 -p gpsr -e 38 -c 2 -a 0 -i 5 -k MAC
r -t 0.004350905 -s 17 -d -1 -p gpsr -e 38 -c 2 -a 0 -i 5 -k MAC
r -t 0.004351030 -s 24 -d -1 -p gpsr -e 38 -c 2 -a 0 -i 5 -k MAC
r -t 0.004351105 -s 26 -d -1 -p gpsr -e 38 -c 2 -a 0 -i 5 -k MAC
r -t 0.004375475 -s 16 -d -1 -p gpsr -e 38 -c 2 -a 0 -i 5 -k RTR
+ -t 0.004375475 -s 16 -d -1 -p gpsr -e 38 -c 2 -a 0 -i 13 -k RTR 
- -t 0.004375475 -s 16 -d -1 -p gpsr -e 38 -c 2 -a 0 -i 13 -k RTR
h -t 0.004375475 -s 16 -d -1 -p gpsr -e 38 -c 2 -a 0 -i 13 -k RTR
r -t 0.004375723 -s 3 -d -1 -p gpsr -e 38 -c 2 -a 0 -i 5 -k RTR
r -t 0.004375784 -s 12 -d -1 -p gpsr -e 38 -c 2 -a 0 -i 5 -k RTR
+ -t 0.004375784 -s 12 -d -1 -p gpsr -e 38 -c 2 -a 0 -i 14 -k RTR 
- -t 0.004375784 -s 12 -d -1 -p gpsr -e 38 -c 2 -a 0 -i 14 -k RTR
h -t 0.004375784 -s 12 -d -1 -p gpsr -e 38 -c 2 -a 0 -i 14 -k RTR
r -t 0.004375825 -s 14 -d -1 -p gpsr -e 38 -c 2 -a 0 -i 5 -k RTR
+ -t 0.004375825 -s 14 -d -1 -p gpsr -e 38 -c 2 -a 0 -i 15 -k RTR 
- -t 0.004375825 -s 14 -d -1 -p gpsr -e 38 -c 2 -a 0 -i 15 -k RTR
h -t 0.004375825 -s 14 -d -1 -p gpsr -e 38 -c 2 -a 0 -i 15 -k RTR
r -t 0.004375829 -s 13 -d -1 -p gpsr -e 38 -c 2 -a 0 -i 5 -k RTR
+ -t 0.004375829 -s 13 -d -1 -p gpsr -e 38 -c 2 -a 0 -i 16 -k RTR 
- -t 0.004375829 -s 13 -d -1 -p gpsr -e 38 -c 2 -a 0 -i 16 -k RTR
h -t 0.004375829 -s 13 -d -1 -p gpsr -e 38 -c 2 -a 0 -i 16 -k RTR
r -t 0.004375905 -s 17 -d -1 -p gpsr -e 38 -c 2 -a 0 -i 5 -k RTR
+ -t 0.004375905 -s 17 -d -1 -p gpsr -e 38 -c 2 -a 0 -i 17 -k RTR 
- -t 0.004375905 -s 17 -d -1 -p gpsr -e 38 -c 2 -a 0 -i 17 -k RTR
h -t 0.004375905 -s 17 -d -1 -p gpsr -e 38 -c 2 -a 0 -i 17 -k RTR
r -t 0.004376030 -s 24 -d -1 -p gpsr -e 38 -c 2 -a 0 -i 5 -k RTR
r -t 0.004376105 -s 26 -d -1 -p gpsr -e 38 -c 2 -a 0 -i 5 -k RTR
+ -t 0.004376105 -s 26 -d -1 -p gpsr -e 38 -c 2 -a 0 -i 18 -k RTR 
- -t 0.004376105 -s 26 -d -1 -p gpsr -e 38 -c 2 -a 0 -i 18 -k RTR
h -t 0.004376105 -s 26 -d -1 -p gpsr -e 38 -c 2 -a 0 -i 18 -k RTR
r -t 0.004389681 -s 28 -d -1 -p gpsr -e 38 -c 2 -a 0 -i 1 -k MAC
d -t 0.004389922 -s 5 -d -1 -p gpsr -e 96 -c 2 -a 0 -i 1 -k MAC
r -t 0.004414681 -s 28 -d -1 -p gpsr -e 38 -c 2 -a 0 -i 1 -k RTR
r -t 0.004419688 -s 1 -d -1 -p gpsr -e 38 -c 2 -a 0 -i 6 -k MAC
r -t 0.004419802 -s 2 -d -1 -p gpsr -e 38 -c 2 -a 0 -i 6 -k MAC
r -t 0.004420047 -s 15 -d -1 -p gpsr -e 38 -c 2 -a 0 -i 6 -k MAC
r -t 0.004420161 -s 20 -d -1 -p gpsr -e 38 -c 2 -a 0 -i 6 -k MAC
r -t 0.004420181 -s 18 -d -1 -p gpsr -e 38 -c 2 -a 0 -i 6 -k MAC
r -t 0.004420460 -s 11 -d -1 -p gpsr -e 38 -c 2 -a 0 -i 6 -k MAC
r -t 0.004420561 -s 25 -d -1 -p gpsr -e 38 -c 2 -a 0 -i 6 -k MAC
d -t 0.004420792 -s 27 -d -1 -p gpsr -e 96 -c 2 -a 0 -i 6 -k MAC
r -t 0.004444688 -s 1 -d -1 -p gpsr -e 38 -c 2 -a 0 -i 6 -k RTR
r -t 0.004444802 -s 2 -d -1 -p gpsr -e 38 -c 2 -a 0 -i 6 -k RTR
r -t 0.004445047 -s 15 -d -1 -p gpsr -e 38 -c 2 -a 0 -i 6 -k RTR
r -t 0.004445161 -s 20 -d -1 -p gpsr -e 38 -c 2 -a 0 -i 6 -k RTR
r -t 0.004445181 -s 18 -d -1 -p gpsr -e 38 -c 2 -a 0 -i 6 -k RTR
r -t 0.004445460 -s 11 -d -1 -p gpsr -e 38 -c 2 -a 0 -i 6 -k RTR
+ -t 0.004445460 -s 11 -d -1 -p gpsr -e 38 -c 2 -a 0 -i 19 -k RTR 
- -t 0.004445460 -s 11 -d -1 -p gpsr -e 38 -c 2 -a 0 -i 19 -k RTR
h -t 0.004445460 -s 11 -d -1 -p gpsr -e 38 -c 2 -a 0 -i 19 -k RTR
r -t 0.004445561 -s 25 -d -1 -p gpsr -e 38 -c 2 -a 0 -i 6 -k RTR
+ -t 0.004445561 -s 25 -d -1 -p gpsr -e 38 -c 2 -a 0 -i 20 -k RTR 
- -t 0.004445561 -s 25 -d -1 -p gpsr -e 38 -c 2 -a 0 -i 20 -k RTR
h -t 0.004445561 -s 25 -d -1 -p gpsr -e 38 -c 2 -a 0 -i 20 -k RTR
+ -t 0.004470905 -s 17 -d -1 -p gpsr -e 96 -c 2 -a 0 -i 17 -k MAC 
- -t 0.004470905 -s 17 -d -1 -p gpsr -e 96 -c 2 -a 0 -i 17 -k MAC
h -t 0.004470905 -s 17 -d -1 -p gpsr -e 96 -c 2 -a 0 -i 17 -k MAC
+ -t 0.004500723 -s 3 -d -1 -p gpsr -e 96 -c 2 -a 0 -i 8 -k MAC 
- -t 0.004500723 -s 3 -d -1 -p gpsr -e 96 -c 2 -a 0 -i 8 -k MAC
h -t 0.004500723 -s 3 -d -1 -p gpsr -e 96 -c 2 -a 0 -i 8 -k MAC
d -t 0.004501056 -s 13 -d -1 -p gpsr -e 96 -c 2 -a 0 -i 17 -k MAC
d -t 0.004501579 -s 14 -d -1 -p gpsr -e 96 -c 2 -a 0 -i 17 -k MAC
d -t 0.004501616 -s 12 -d -1 -p gpsr -e 96 -c 2 -a 0 -i 17 -k MAC
d -t 0.004501636 -s 7 -d -1 -p gpsr -e 96 -c 2 -a 0 -i 17 -k MAC
d -t 0.004501814 -s 6 -d -1 -p gpsr -e 96 -c 2 -a 0 -i 17 -k MAC
d -t 0.004501938 -s 9 -d -1 -p gpsr -e 96 -c 2 -a 0 -i 17 -k MAC
+ -t 0.004609802 -s 2 -d -1 -p gpsr -e 96 -c 2 -a 0 -i 10 -k MAC 
- -t 0.004609802 -s 2 -d -1 -p gpsr -e 96 -c 2 -a 0 -i 10 -k MAC
h -t 0.004609802 -s 2 -d -1 -p gpsr -e 96 -c 2 -a 0 -i 10 -k MAC
r -t 0.005239368 -s 16 -d -1 -p gpsr -e 38 -c 2 -a 0 -i 17 -k MAC
r -t 0.005239389 -s 26 -d -1 -p gpsr -e 38 -c 2 -a 0 -i 17 -k MAC
r -t 0.005239915 -s 0 -d -1 -p gpsr -e 38 -c 2 -a 0 -i 17 -k MAC
r -t 0.005264368 -s 16 -d -1 -p gpsr -e 38 -c 2 -a 0 -i 17 -k RTR
r -t 0.005264389 -s 26 -d -1 -p gpsr -e 38 -c 2 -a 0 -i 17 -k RTR
r -t 0.005264915 -s 0 -d -1 -p gpsr -e 38 -c 2 -a 0 -i 17 -k RTR
+ -t 0.005264915 -s 0 -d -1 -p gpsr -e 38 -c 2 -a 0 -i 21 -k RTR 
- -t 0.005264915 -s 0 -d -1 -p gpsr -e 38 -c 2 -a 0 -i 21 -k RTR
h -t 0.005264915 -s 0 -d -1 -p gpsr -e 38 -c 2 -a 0 -i 21 -k RTR
d -t 0.005269056 -s 13 -d -1 -p gpsr -e 96 -c 2 -a 0 -i 8 -k MAC
r -t 0.005269098 -s 24 -d -1 -p gpsr -e 38 -c 2 -a 0 -i 8 -k MAC
d -t 0.005269579 -s 14 -d -1 -p gpsr -e 96 -c 2 -a 0 -i 8 -k MAC
d -t 0.005269616 -s 12 -d -1 -p gpsr -e 96 -c 2 -a 0 -i 8 -k MAC
d -t 0.005269636 -s 7 -d -1 -p gpsr -e 96 -c 2 -a 0 -i 8 -k MAC
r -t 0.005269787 -s 5 -d -1 -p gpsr -e 38 -c 2 -a 0 -i 8 -k MAC
d -t 0.005269814 -s 6 -d -1 -p gpsr -e 96 -c 2 -a 0 -i 8 -k MAC
d -t 0.005269938 -s 9 -d -1 -p gpsr -e 96 -c 2 -a 0 -i 8 -k MAC
r -t 0.005270038 -s 22 -d -1 -p gpsr -e 38 -c 2 -a 0 -i 8 -k MAC
r -t 0.005294098 -s 24 -d -1 -p gpsr -e 38 -c 2 -a 0 -i 8 -k RTR
r -t 0.005294787 -s 5 -d -1 -p gpsr -e 38 -c 2 -a 0 -i 8 -k RTR
r -t 0.005295038 -s 22 -d -1 -p gpsr -e 38 -c 2 -a 0 -i 8 -k RTR
+ -t 0.005295038 -s 22 -d -1 -p gpsr -e 38 -c 2 -a 0 -i 22 -k RTR 
- -t 0.005295038 -s 22 -d -1 -p gpsr -e 38 -c 2 -a 0 -i 22 -k RTR
h -t 0.005295038 -s 22 -d -1 -p gpsr -e 38 -c 2 -a 0 -i 22 -k RTR
+ -t 0.005339098 -s 24 -d -1 -p gpsr -e 96 -c 2 -a 0 -i 7 -k MAC 
- -t 0.005339098 -s 24 -d -1 -p gpsr -e 96 -c 2 -a 0 -i 7 -k MAC
h -t 0.005339098 -s 24 -d -1 -p gpsr -e 96 -c 2 -a 0 -i 7 -k MAC
r -t 0.005378096 -s 1 -d -1 -p gpsr -e 38 -c 2 -a 0 -i 10 -k MAC
r -t 0.005378118 -s 21 -d -1 -p gpsr -e 38 -c 2 -a 0 -i 10 -k MAC
r -t 0.005378333 -s 20 -d -1 -p gpsr -e 38 -c 2 -a 0 -i 10 -k MAC
r -t 0.005378341 -s 18 -d -1 -p gpsr -e 38 -c 2 -a 0 -i 10 -k MAC
r -t 0.005378461 -s 11 -d -1 -p gpsr -e 38 -c 2 -a 0 -i 10 -k MAC
r -t 0.005378580 -s 15 -d -1 -p gpsr -e 38 -c 2 -a 0 -i 10 -k MAC
r -t 0.005378721 -s 25 -d -1 -p gpsr -e 38 -c 2 -a 0 -i 10 -k MAC
r -t 0.005379013 -s 10 -d -1 -p gpsr -e 38 -c 2 -a 0 -i 10 -k MAC
r -t 0.005403096 -s 1 -d -1 -p gpsr -e 38 -c 2 -a 0 -i 10 -k RTR
r -t 0.005403118 -s 21 -d -1 -p gpsr -e 38 -c 2 -a 0 -i 10 -k RTR
r -t 0.005403333 -s 20 -d -1 -p gpsr -e 38 -c 2 -a 0 -i 10 -k RTR
r -t 0.005403341 -s 18 -d -1 -p gpsr -e 38 -c 2 -a 0 -i 10 -k RTR
r -t 0.005403461 -s 11 -d -1 -p gpsr -e 38 -c 2 -a 0 -i 10 -k RTR
r -t 0.005403580 -s 15 -d -1 -p gpsr -e 38 -c 2 -a 0 -i 10 -k RTR
r -t 0.005403721 -s 25 -d -1 -p gpsr -e 38 -c 2 -a 0 -i 10 -k RTR
r -t 0.005404013 -s 10 -d -1 -p gpsr -e 38 -c 2 -a 0 -i 10 -k RTR
+ -t 0.005404013 -s 10 -d -1 -p gpsr -e 38 -c 2 -a 0 -i 23 -k RTR 
- -t 0.005404013 -s 10 -d -1 -p gpsr -e 38 -c 2 -a 0 -i 23 -k RTR
h -t 0.005404013 -s 10 -d -1 -p gpsr -e 38 -c 2 -a 0 -i 23 -k RTR
+ -t 0.005410038 -s 22 -d -1 -p gpsr -e 96 -c 2 -a 0 -i 22 -k MAC 
- -t 0.005410038 -s 22 -d -1 -p gpsr -e 96 -c 2 -a 0 -i 22 -k MAC
h -t 0.005410038 -s 22 -d -1 -p gpsr -e 96 -c 2 -a 0 -i 22 -k MAC
d -t 0.005410995 -s 14 -d -1 -p gpsr -e 96 -c 2 -a 0 -i 7 -k MAC
d -t 0.005411040 -s 13 -d -1 -p gpsr -e 96 -c 2 -a 0 -i 7 -k MAC
d -t 0.005411066 -s 12 -d -1 -p gpsr -e 96 -c 2 -a 0 -i 7 -k MAC
+ -t 0.005508341 -s 18 -d -1 -p gpsr -e 96 -c 2 -a 0 -i 12 -k MAC 
- -t 0.005508341 -s 18 -d -1 -p gpsr -e 96 -c 2 -a 0 -i 12 -k MAC
h -t 0.005508341 -s 18 -d -1 -p gpsr -e 96 -c 2 -a 0 -i 12 -k MAC
+ -t 0.005699915 -s 0 -d -1 -p gpsr -e 96 -c 2 -a 0 -i 21 -k MAC 
- -t 0.005699915 -s 0 -d -1 -p gpsr -e 96 -c 2 -a 0 -i 21 -k MAC
h -t 0.005699915 -s 0 -d -1 -p gpsr -e 96 -c 2 -a 0 -i 21 -k MAC
+ -t 0.006003767 -s 16 -d -1 -p gpsr -e 96 -c 2 -a 0 -i 13 -k MAC 
- -t 0.006003767 -s 16 -d -1 -p gpsr -e 96 -c 2 -a 0 -i 13 -k MAC
h -t 0.006003767 -s 16 -d -1 -p gpsr -e 96 -c 2 -a 0 -i 13 -k MAC
d -t 0.006004230 -s 17 -d -1 -p gpsr -e 96 -c 2 -a 0 -i 21 -k MAC
d -t 0.006004231 -s 12 -d -1 -p gpsr -e 96 -c 2 -a 0 -i 22 -k MAC
d -t 0.006004305 -s 14 -d -1 -p gpsr -e 96 -c 2 -a 0 -i 22 -k MAC
d -t 0.006004416 -s 26 -d -1 -p gpsr -e 96 -c 2 -a 0 -i 22 -k MAC
d -t 0.006004433 -s 7 -d -1 -p gpsr -e 96 -c 2 -a 0 -i 7 -k MAC
d -t 0.006004586 -s 6 -d -1 -p gpsr -e 96 -c 2 -a 0 -i 22 -k MAC
d -t 0.006004691 -s 13 -d -1 -p gpsr -e 96 -c 2 -a 0 -i 22 -k MAC
r -t 0.006107474 -s 3 -d -1 -p gpsr -e 38 -c 2 -a 0 -i 7 -k MAC
r -t 0.006108078 -s 5 -d -1 -p gpsr -e 38 -c 2 -a 0 -i 7 -k MAC
r -t 0.006132474 -s 3 -d -1 -p gpsr -e 38 -c 2 -a 0 -i 7 -k RTR
r -t 0.006133078 -s 5 -d -1 -p gpsr -e 38 -c 2 -a 0 -i 7 -k RTR
r -t 0.006178160 -s 4 -d -1 -p gpsr -e 38 -c 2 -a 0 -i 22 -k MAC
r -t 0.006178494 -s 9 -d -1 -p gpsr -e 38 -c 2 -a 0 -i 22 -k MAC
r -t 0.006203160 -s 4 -d -1 -p gpsr -e 38 -c 2 -a 0 -i 22 -k RTR
+ -t 0.006203160 -s 4 -d -1 -p gpsr -e 38 -c 2 -a 0 -i 24 -k RTR 
- -t 0.006203160 -s 4 -d -1 -p gpsr -e 38 -c 2 -a 0 -i 24 -k RTR
h -t 0.006203160 -s 4 -d -1 -p gpsr -e 38 -c 2 -a 0 -i 24 -k RTR
r -t 0.006203494 -s 9 -d -1 -p gpsr -e 38 -c 2 -a 0 -i 22 -k RTR
+ -t 0.006203494 -s 9 -d -1 -p gpsr -e 38 -c 2 -a 0 -i 25 -k RTR 
- -t 0.006203494 -s 9 -d -1 -p gpsr -e 38 -c 2 -a 0 -i 25 -k RTR
h -t 0.006203494 -s 9 -d -1 -p gpsr -e 38 -c 2 -a 0 -i 25 -k RTR
r -t 0.006276369 -s 20 -d -1 -p gpsr -e 38 -c 2 -a 0 -i 12 -k MAC
r -t 0.006276727 -s 25 -d -1 -p gpsr -e 38 -c 2 -a 0 -i 12 -k MAC
r -t 0.006276845 -s 1 -d -1 -p gpsr -e 38 -c 2 -a 0 -i 12 -k MAC
r -t 0.006276881 -s 2 -d -1 -p gpsr -e 38 -c 2 -a 0 -i 12 -k MAC
r -t 0.006277036 -s 21 -d -1 -p gpsr -e 38 -c 2 -a 0 -i 12 -k MAC
r -t 0.006277041 -s 10 -d -1 -p gpsr -e 38 -c 2 -a 0 -i 12 -k MAC
r -t 0.006277109 -s 11 -d -1 -p gpsr -e 38 -c 2 -a 0 -i 12 -k MAC
r -t 0.006277593 -s 15 -d -1 -p gpsr -e 38 -c 2 -a 0 -i 12 -k MAC
r -t 0.006301369 -s 20 -d -1 -p gpsr -e 38 -c 2 -a 0 -i 12 -k RTR
r -t 0.006301727 -s 25 -d -1 -p gpsr -e 38 -c 2 -a 0 -i 12 -k RTR
r -t 0.006301845 -s 1 -d -1 -p gpsr -e 38 -c 2 -a 0 -i 12 -k RTR
r -t 0.006301881 -s 2 -d -1 -p gpsr -e 38 -c 2 -a 0 -i 12 -k RTR
r -t 0.006302036 -s 21 -d -1 -p gpsr -e 38 -c 2 -a 0 -i 12 -k RTR
r -t 0.006302041 -s 10 -d -1 -p gpsr -e 38 -c 2 -a 0 -i 12 -k RTR
r -t 0.006302109 -s 11 -d -1 -p gpsr -e 38 -c 2 -a 0 -i 12 -k RTR
r -t 0.006302593 -s 15 -d -1 -p gpsr -e 38 -c 2 -a 0 -i 12 -k RTR
+ -t 0.006347109 -s 11 -d -1 -p gpsr -e 96 -c 2 -a 0 -i 19 -k MAC 
- -t 0.006347109 -s 11 -d -1 -p gpsr -e 96 -c 2 -a 0 -i 19 -k MAC
h -t 0.006347109 -s 11 -d -1 -p gpsr -e 96 -c 2 -a 0 -i 19 -k MAC
r -t 0.006468572 -s 29 -d -1 -p gpsr -e 38 -c 2 -a 0 -i 21 -k MAC
r -t 0.006468591 -s 19 -d -1 -p gpsr -e 38 -c 2 -a 0 -i 21 -k MAC
r -t 0.006468623 -s 23 -d -1 -p gpsr -e 38 -c 2 -a 0 -i 21 -k MAC
r -t 0.006493572 -s 29 -d -1 -p gpsr -e 38 -c 2 -a 0 -i 21 -k RTR
+ -t 0.006493572 -s 29 -d -1 -p gpsr -e 38 -c 2 -a 0 -i 26 -k RTR 
- -t 0.006493572 -s 29 -d -1 -p gpsr -e 38 -c 2 -a 0 -i 26 -k RTR
h -t 0.006493572 -s 29 -d -1 -p gpsr -e 38 -c 2 -a 0 -i 26 -k RTR
r -t 0.006493591 -s 19 -d -1 -p gpsr -e 38 -c 2 -a 0 -i 21 -k RTR
+ -t 0.006493591 -s 19 -d -1 -p gpsr -e 38 -c 2 -a 0 -i 27 -k RTR 
- -t 0.006493591 -s 19 -d -1 -p gpsr -e 38 -c 2 -a 0 -i 27 -k RTR
h -t 0.006493591 -s 19 -d -1 -p gpsr -e 38 -c 2 -a 0 -i 27 -k RTR
r -t 0.006493623 -s 23 -d -1 -p gpsr -e 38 -c 2 -a 0 -i 21 -k RTR
+ -t 0.006493623 -s 23 -d -1 -p gpsr -e 38 -c 2 -a 0 -i 28 -k RTR 
- -t 0.006493623 -s 23 -d -1 -p gpsr -e 38 -c 2 -a 0 -i 28 -k RTR
h -t 0.006493623 -s 23 -d -1 -p gpsr -e 38 -c 2 -a 0 -i 28 -k RTR
+ -t 0.006558160 -s 4 -d -1 -p gpsr -e 96 -c 2 -a 0 -i 24 -k MAC 
- -t 0.006558160 -s 4 -d -1 -p gpsr -e 96 -c 2 -a 0 -i 24 -k MAC
h -t 0.006558160 -s 4 -d -1 -p gpsr -e 96 -c 2 -a 0 -i 24 -k MAC
d -t 0.006558981 -s 6 -d -1 -p gpsr -e 96 -c 2 -a 0 -i 13 -k MAC
d -t 0.006559205 -s 13 -d -1 -p gpsr -e 96 -c 2 -a 0 -i 13 -k MAC
+ -t 0.006768591 -s 19 -d -1 -p gpsr -e 96 -c 2 -a 0 -i 27 -k MAC 
- -t 0.006768591 -s 19 -d -1 -p gpsr -e 96 -c 2 -a 0 -i 27 -k MAC
h -t 0.006768591 -s 19 -d -1 -p gpsr -e 96 -c 2 -a 0 -i 27 -k MAC
d -t 0.006769789 -s 10 -d -1 -p gpsr -e 96 -c 2 -a 0 -i 19 -k MAC
d -t 0.006772230 -s 17 -d -1 -p gpsr -e 96 -c 2 -a 0 -i 13 -k MAC
d -t 0.006772231 -s 12 -d -1 -p gpsr -e 96 -c 2 -a 0 -i 13 -k MAC
d -t 0.006772305 -s 14 -d -1 -p gpsr -e 96 -c 2 -a 0 -i 13 -k MAC
d -t 0.006772416 -s 26 -d -1 -p gpsr -e 96 -c 2 -a 0 -i 13 -k MAC
d -t 0.006772433 -s 7 -d -1 -p gpsr -e 96 -c 2 -a 0 -i 13 -k MAC
r -t 0.007115768 -s 2 -d -1 -p gpsr -e 38 -c 2 -a 0 -i 19 -k MAC
r -t 0.007115877 -s 18 -d -1 -p gpsr -e 38 -c 2 -a 0 -i 19 -k MAC
r -t 0.007115895 -s 20 -d -1 -p gpsr -e 38 -c 2 -a 0 -i 19 -k MAC
r -t 0.007116028 -s 1 -d -1 -p gpsr -e 38 -c 2 -a 0 -i 19 -k MAC
r -t 0.007116075 -s 25 -d -1 -p gpsr -e 38 -c 2 -a 0 -i 19 -k MAC
r -t 0.007116084 -s 21 -d -1 -p gpsr -e 38 -c 2 -a 0 -i 19 -k MAC
r -t 0.007140768 -s 2 -d -1 -p gpsr -e 38 -c 2 -a 0 -i 19 -k RTR
r -t 0.007140877 -s 18 -d -1 -p gpsr -e 38 -c 2 -a 0 -i 19 -k RTR
r -t 0.007140895 -s 20 -d -1 -p gpsr -e 38 -c 2 -a 0 -i 19 -k RTR
r -t 0.007141028 -s 1 -d -1 -p gpsr -e 38 -c 2 -a 0 -i 19 -k RTR
r -t 0.007141075 -s 25 -d -1 -p gpsr -e 38 -c 2 -a 0 -i 19 -k RTR
r -t 0.007141084 -s 21 -d -1 -p gpsr -e 38 -c 2 -a 0 -i 19 -k RTR
+ -t 0.007265895 -s 20 -d -1 -p gpsr -e 96 -c 2 -a 0 -i 11 -k MAC 
- -t 0.007265895 -s 20 -d -1 -p gpsr -e 96 -c 2 -a 0 -i 11 -k MAC
h -t 0.007265895 -s 20 -d -1 -p gpsr -e 96 -c 2 -a 0 -i 11 -k MAC
d -t 0.007266614 -s 10 -d -1 -p gpsr -e 96 -c 2 -a 0 -i 27 -k MAC
r -t 0.007326282 -s 22 -d -1 -p gpsr -e 38 -c 2 -a 0 -i 24 -k MAC
r -t 0.007326736 -s 9 -d -1 -p gpsr -e 38 -c 2 -a 0 -i 24 -k MAC
d -t 0.007326981 -s 6 -d -1 -p gpsr -e 96 -c 2 -a 0 -i 24 -k MAC
d -t 0.007327205 -s 13 -d -1 -p gpsr -e 96 -c 2 -a 0 -i 24 -k MAC
r -t 0.007351282 -s 22 -d -1 -p gpsr -e 38 -c 2 -a 0 -i 24 -k RTR
r -t 0.007351736 -s 9 -d -1 -p gpsr -e 38 -c 2 -a 0 -i 24 -k RTR
r -t 0.007536911 -s 29 -d -1 -p gpsr -e 38 -c 2 -a 0 -i 27 -k MAC
r -t 0.007537101 -s 23 -d -1 -p gpsr -e 38 -c 2 -a 0 -i 27 -k MAC
r -t 0.007537267 -s 0 -d -1 -p gpsr -e 38 -c 2 -a 0 -i 27 -k MAC
r -t 0.007561911 -s 29 -d -1 -p gpsr -e 38 -c 2 -a 0 -i 27 -k RTR
r -t 0.007562101 -s 23 -d -1 -p gpsr -e 38 -c 2 -a 0 -i 27 -k RTR
r -t 0.007562267 -s 0 -d -1 -p gpsr -e 38 -c 2 -a 0 -i 27 -k RTR
+ -t 0.007576736 -s 9 -d -1 -p gpsr -e 96 -c 2 -a 0 -i 25 -k MAC 
- -t 0.007576736 -s 9 -d -1 -p gpsr -e 96 -c 2 -a 0 -i 25 -k MAC
h -t 0.007576736 -s 9 -d -1 -p gpsr -e 96 -c 2 -a 0 -i 25 -k MAC
+ -t 0.007606911 -s 29 -d -1 -p gpsr -e 96 -c 2 -a 0 -i 26 -k MAC 
- -t 0.007606911 -s 29 -d -1 -p gpsr -e 96 -c 2 -a 0 -i 26 -k MAC
h -t 0.007606911 -s 29 -d -1 -p gpsr -e 96 -c 2 -a 0 -i 26 -k MAC
r -t 0.008033923 -s 18 -d -1 -p gpsr -e 38 -c 2 -a 0 -i 11 -k MAC
r -t 0.008034297 -s 25 -d -1 -p gpsr -e 38 -c 2 -a 0 -i 11 -k MAC
r -t 0.008034377 -s 1 -d -1 -p gpsr -e 38 -c 2 -a 0 -i 11 -k MAC
r -t 0.008034426 -s 2 -d -1 -p gpsr -e 38 -c 2 -a 0 -i 11 -k MAC
r -t 0.008034570 -s 21 -d -1 -p gpsr -e 38 -c 2 -a 0 -i 11 -k MAC
d -t 0.008034614 -s 10 -d -1 -p gpsr -e 96 -c 2 -a 0 -i 11 -k MAC
r -t 0.008034681 -s 11 -d -1 -p gpsr -e 38 -c 2 -a 0 -i 11 -k MAC
r -t 0.008035129 -s 15 -d -1 -p gpsr -e 38 -c 2 -a 0 -i 11 -k MAC
r -t 0.008058923 -s 18 -d -1 -p gpsr -e 38 -c 2 -a 0 -i 11 -k RTR
r -t 0.008059297 -s 25 -d -1 -p gpsr -e 38 -c 2 -a 0 -i 11 -k RTR
r -t 0.008059377 -s 1 -d -1 -p gpsr -e 38 -c 2 -a 0 -i 11 -k RTR
r -t 0.008059426 -s 2 -d -1 -p gpsr -e 38 -c 2 -a 0 -i 11 -k RTR
r -t 0.008059570 -s 21 -d -1 -p gpsr -e 38 -c 2 -a 0 -i 11 -k RTR
r -t 0.008059681 -s 11 -d -1 -p gpsr -e 38 -c 2 -a 0 -i 11 -k RTR
r -t 0.008060129 -s 15 -d -1 -p gpsr -e 38 -c 2 -a 0 -i 11 -k RTR
+ -t 0.008264377 -s 1 -d -1 -p gpsr -e 96 -c 2 -a 0 -i 9 -k MAC 
- -t 0.008264377 -s 1 -d -1 -p gpsr -e 96 -c 2 -a 0 -i 9 -k MAC
h -t 0.008264377 -s 1 -d -1 -p gpsr -e 96 -c 2 -a 0 -i 9 -k MAC
r -t 0.008345011 -s 6 -d -1 -p gpsr -e 38 -c 2 -a 0 -i 25 -k MAC
r -t 0.008345193 -s 22 -d -1 -p gpsr -e 38 -c 2 -a 0 -i 25 -k MAC
r -t 0.008345313 -s 4 -d -1 -p gpsr -e 38 -c 2 -a 0 -i 25 -k MAC
r -t 0.008345323 -s 14 -d -1 -p gpsr -e 38 -c 2 -a 0 -i 25 -k MAC
r -t 0.008345369 -s 26 -d -1 -p gpsr -e 38 -c 2 -a 0 -i 25 -k MAC
r -t 0.008345379 -s 12 -d -1 -p gpsr -e 38 -c 2 -a 0 -i 25 -k MAC
r -t 0.008345619 -s 13 -d -1 -p gpsr -e 38 -c 2 -a 0 -i 25 -k MAC
r -t 0.008345828 -s 16 -d -1 -p gpsr -e 38 -c 2 -a 0 -i 25 -k MAC
r -t 0.008345840 -s 17 -d -1 -p gpsr -e 38 -c 2 -a 0 -i 25 -k MAC
r -t 0.008345951 -s 3 -d -1 -p gpsr -e 38 -c 2 -a 0 -i 25 -k MAC
r -t 0.008370011 -s 6 -d -1 -p gpsr -e 38 -c 2 -a 0 -i 25 -k RTR
+ -t 0.008370011 -s 6 -d -1 -p gpsr -e 38 -c 2 -a 0 -i 29 -k RTR 
- -t 0.008370011 -s 6 -d -1 -p gpsr -e 38 -c 2 -a 0 -i 29 -k RTR
h -t 0.008370011 -s 6 -d -1 -p gpsr -e 38 -c 2 -a 0 -i 29 -k RTR
r -t 0.008370193 -s 22 -d -1 -p gpsr -e 38 -c 2 -a 0 -i 25 -k RTR
r -t 0.008370313 -s 4 -d -1 -p gpsr -e 38 -c 2 -a 0 -i 25 -k RTR
r -t 0.008370323 -s 14 -d -1 -p gpsr -e 38 -c 2 -a 0 -i 25 -k RTR
r -t 0.008370369 -s 26 -d -1 -p gpsr -e 38 -c 2 -a 0 -i 25 -k RTR
r -t 0.008370379 -s 12 -d -1 -p gpsr -e 38 -c 2 -a 0 -i 25 -k RTR
r -t 0.008370619 -s 13 -d -1 -p gpsr -e 38 -c 2 -a 0 -i 25 -k RTR
r -t 0.008370828 -s 16 -d -1 -p gpsr -e 38 -c 2 -a 0 -i 25 -k RTR
r -t 0.008370840 -s 17 -d -1 -p gpsr -e 38 -c 2 -a 0 -i 25 -k RTR